Program Version,EnergyPlus, Version 8.7.0-78a111df4a, YMD=2023.08.13 20:06
1,5,Environment Title[],Latitude[deg],Longitude[deg],Time Zone[],Elevation[m]
2,6,Day of Simulation[],Month[],Day of Month[],DST Indicator[1=yes 0=no],Hour[],StartMinute[],EndMinute[],DayType
3,3,Cumulative Day of Simulation[],Month[],Day of Month[],DST Indicator[1=yes 0=no],DayType  ! When Daily Report Variables Requested
4,2,Cumulative Days of Simulation[],Month[]  ! When Monthly Report Variables Requested
5,1,Cumulative Days of Simulation[] ! When Run Period Report Variables Requested
6,1,Environment,Site Outdoor Air Drybulb Temperature [C] !Hourly
7,1,ATICO CEN,Zone Mean Air Temperature [C] !Hourly
8,1,ATICO E,Zone Mean Air Temperature [C] !Hourly
9,1,MODULO,Zone Mean Air Temperature [C] !Hourly
10,1,ATICO O,Zone Mean Air Temperature [C] !Hourly
End of Data Dictionary
1,2022, -15.85, -71.09,  -5.00,4469.00
2,1, 1, 1, 0, 1, 0.00,60.00,Sunday
6,1.4124999999999999
7,0.8360276185712872
8,0.5549121467688374
9,6.649499395209874
10,0.24835525079413008
2,1, 1, 1, 0, 2, 0.00,60.00,Sunday
6,1.9
7,1.3803703086654036
8,1.1383904418295186
9,6.673279011636037
10,0.8500829765164699
2,1, 1, 1, 0, 3, 0.00,60.00,Sunday
6,1.7125
7,1.2140829953020789
8,0.9383535545718367
9,6.546347190845015
10,0.6618924398020494
2,1, 1, 1, 0, 4, 0.00,60.00,Sunday
6,1.0375
7,0.5623901590618399
8,0.19704427476326803
9,6.280104161485846
10,-0.0758679480213231
2,1, 1, 1, 0, 5, 0.00,60.00,Sunday
6,0.7625
7,0.11088533535688956
8,-0.32603030533752566
9,6.040137798210166
10,-0.5883428892561275
2,1, 1, 1, 0, 6, 0.00,60.00,Sunday
6,0.55
7,6.773772516070867
8,5.266143688188823
9,6.205588145523299
10,5.811216769550622
2,1, 1, 1, 0, 7, 0.00,60.00,Sunday
6,2.4625000000000005
7,20.844420412074358
8,16.060867687618495
9,8.38560907163351
10,17.947011719652886
2,1, 1, 1, 0, 8, 0.00,60.00,Sunday
6,5.575
7,31.40580521685677
8,25.341798253820536
9,10.152809092491392
10,27.952160622199899
2,1, 1, 1, 0, 9, 0.00,60.00,Sunday
6,8.2625
7,40.329039422772627
8,34.19822531014123
9,13.628643873747322
10,37.06253535502704
2,1, 1, 1, 0,10, 0.00,60.00,Sunday
6,10.200000000000001
7,44.72850595292624
8,40.070425406490077
9,15.604059821341215
10,42.07515447340654
2,1, 1, 1, 0,11, 0.00,60.00,Sunday
6,11.3
7,44.307360075128
8,41.35351840862326
9,16.704340212624918
10,42.13680079478247
2,1, 1, 1, 0,12, 0.00,60.00,Sunday
6,12.1625
7,40.987128224757579
8,39.50656672791499
9,16.91874874674078
10,39.52815644515145
2,1, 1, 1, 0,13, 0.00,60.00,Sunday
6,12.749999999999999
7,32.08274608598006
8,30.891152337182534
9,15.750634794777936
10,30.693261164109257
2,1, 1, 1, 0,14, 0.00,60.00,Sunday
6,13.087499999999999
7,19.995322253667938
8,19.882527955650347
9,13.5951245072069
10,19.692842394636935
2,1, 1, 1, 0,15, 0.00,60.00,Sunday
6,9.1375
7,14.210058981948896
8,14.494372814181773
9,11.91392910071777
10,14.29801668790915
2,1, 1, 1, 0,16, 0.00,60.00,Sunday
6,5.887500000000001
7,9.464802181262919
8,9.570359267081335
9,10.438525310752535
10,9.345774997732633
2,1, 1, 1, 0,17, 0.00,60.00,Sunday
6,4.025
7,7.380885972441271
8,7.583361308219143
9,9.511763076460971
10,7.326306019913096
2,1, 1, 1, 0,18, 0.00,60.00,Sunday
6,2.3875
7,3.8497504363228867
8,4.165869339436508
9,9.013575429838415
10,3.8682635652544277
2,1, 1, 1, 0,19, 0.00,60.00,Sunday
6,2.4000000000000005
7,2.2449080024018426
8,2.439718886167808
9,7.741019972602438
10,2.117671558796856
2,1, 1, 1, 0,20, 0.00,60.00,Sunday
6,2.575
7,2.199096704426765
8,2.3607609754834497
9,7.5636271459291539
10,2.03521032852903
2,1, 1, 1, 0,21, 0.00,60.00,Sunday
6,2.375
7,1.906642119922509
8,1.9770732241057847
9,7.390861490042049
10,1.6477097636324472
2,1, 1, 1, 0,22, 0.00,60.00,Sunday
6,1.8625000000000003
7,1.3794377508530494
8,1.3609612841036148
9,7.170349135949598
10,1.02797602371373
2,1, 1, 1, 0,23, 0.00,60.00,Sunday
6,1.4125
7,0.8752140899266888
8,0.7369153817624645
9,6.937983059990306
10,0.40404696014685
2,1, 1, 1, 0,24, 0.00,60.00,Sunday
6,0.8625
7,0.5651425229801016
8,0.3549679452962178
9,6.700110863192779
10,0.033637641239450889
2,2, 1, 2, 0, 1, 0.00,60.00,Monday
6,0.35
7,0.22799946183088383
8,-0.05580815458479199
9,6.450722303468776
10,-0.36389045616455387
2,2, 1, 2, 0, 2, 0.00,60.00,Monday
6,0.1375
7,0.023885965438017403
8,-0.3182717939623529
9,6.252014173201972
10,-0.612976777385654
2,2, 1, 2, 0, 3, 0.00,60.00,Monday
6,0.0375
7,-0.18223714853620943
8,-0.5693613583624598
9,6.078300089808255
10,-0.8529056287060663
2,2, 1, 2, 0, 4, 0.00,60.00,Monday
6,-0.125
7,-0.48238046349221977
8,-0.9298212040040286
9,5.886548813529029
10,-1.2041790640895527
2,2, 1, 2, 0, 5, 0.00,60.00,Monday
6,-0.7625000000000001
7,-0.9013190634924106
8,-1.4016041512313376
9,5.612589680060196
10,-1.6639903261500975
2,2, 1, 2, 0, 6, 0.00,60.00,Monday
6,-0.975
7,6.065491868180764
8,4.625011196490728
9,5.77729429374266
10,5.069340367807616
2,2, 1, 2, 0, 7, 0.00,60.00,Monday
6,0.16250000000000004
7,18.866813401034265
8,14.15689401827946
9,7.91600530305264
10,15.940818681376584
2,2, 1, 2, 0, 8, 0.00,60.00,Monday
6,2.9250000000000004
7,27.42911420303504
8,21.008485938909837
9,9.486913940400968
10,23.483136803630616
2,2, 1, 2, 0, 9, 0.00,60.00,Monday
6,6.324999999999999
7,36.89521715654127
8,30.335340058564769
9,12.867312371086893
10,33.12067729959964
2,2, 1, 2, 0,10, 0.00,60.00,Monday
6,9.0375
7,42.60151525957864
8,37.28672038875317
9,15.009533968787832
10,39.416329719202327
2,2, 1, 2, 0,11, 0.00,60.00,Monday
6,10.5875
7,43.860708791535959
8,40.73946077543884
9,16.40341159361362
10,41.56648142785068
2,2, 1, 2, 0,12, 0.00,60.00,Monday
6,12.000000000000002
7,43.2341909086382
8,41.87943238128202
9,17.319131237887296
10,41.91177667316896
2,2, 1, 2, 0,13, 0.00,60.00,Monday
6,13.599999999999998
7,41.17720312385945
8,39.67983664390102
9,17.492551723576108
10,39.22429528719279
2,2, 1, 2, 0,14, 0.00,60.00,Monday
6,14.575
7,29.046278153486449
8,28.46550335231222
9,15.68844576150397
10,28.031013912027335
2,2, 1, 2, 0,15, 0.00,60.00,Monday
6,12.8
7,23.744615215679035
8,22.977866659965213
9,14.252659847117706
10,22.33857933555155
2,2, 1, 2, 0,16, 0.00,60.00,Monday
6,10.099999999999998
7,17.973334136431526
8,17.266835836170857
9,12.856818882361305
10,16.91461651502937
2,2, 1, 2, 0,17, 0.00,60.00,Monday
6,8.1375
7,11.965284013657126
8,11.960033202375378
9,11.328902536428707
10,11.682814865590573
2,2, 1, 2, 0,18, 0.00,60.00,Monday
6,6.125000000000001
7,7.180667864650811
8,7.621436449621951
9,10.158640617598314
10,7.341495048338828
2,2, 1, 2, 0,19, 0.00,60.00,Monday
6,5.362500000000001
7,4.9835183560176798
8,5.4619347709643339
9,8.932093825626254
10,5.157336496197839
2,2, 1, 2, 0,20, 0.00,60.00,Monday
6,4.525
7,4.02586560466807
8,4.415408460269773
9,8.426369354553345
10,4.098568441337479
2,2, 1, 2, 0,21, 0.00,60.00,Monday
6,3.5
7,3.406468444692679
8,3.6791663166436319
9,8.026897799626914
10,3.373338196682204
2,2, 1, 2, 0,22, 0.00,60.00,Monday
6,2.7625
7,2.529312143452206
8,2.6993902011445667
9,7.711578351344502
10,2.3934383710324478
2,2, 1, 2, 0,23, 0.00,60.00,Monday
6,2.0
7,1.720662248727932
8,1.7632578327723104
9,7.3953632818999959
10,1.4588283014105197
2,2, 1, 2, 0,24, 0.00,60.00,Monday
6,1.3249999999999998
7,1.174188198762365
8,1.0875626172101603
9,7.097910602641865
10,0.7940799610580058
2,3, 1, 3, 0, 1, 0.00,60.00,Tuesday
6,0.9125000000000001
7,0.7251350352911898
8,0.5695028546464696
9,6.858029701542951
10,0.29046474920609235
2,3, 1, 3, 0, 2, 0.00,60.00,Tuesday
6,0.05000000000000002
7,0.034433661584486758
8,-0.21488598527833287
9,6.5425928508796009
10,-0.4849479416437519
2,3, 1, 3, 0, 3, 0.00,60.00,Tuesday
6,-0.4625
7,-0.536433988334472
8,-0.9098819312623689
9,6.2476145826334659
10,-1.1672801542606744
2,3, 1, 3, 0, 4, 0.00,60.00,Tuesday
6,-0.8750000000000001
7,-1.0045370368092078
8,-1.4363250181063295
9,5.996304512909049
10,-1.682157190984884
2,3, 1, 3, 0, 5, 0.00,60.00,Tuesday
6,-1.6625
7,-1.5965199117330205
8,-2.125258619980574
9,5.657510077600376
10,-2.3594491775000314
2,3, 1, 3, 0, 6, 0.00,60.00,Tuesday
6,-2.375
7,5.027075931762307
8,3.5944624599836887
9,5.680816994521602
10,4.138357445221754
2,3, 1, 3, 0, 7, 0.00,60.00,Tuesday
6,-2.1625
7,18.321562088347734
8,13.646708156818378
9,7.944056001706535
10,15.56020541779103
2,3, 1, 3, 0, 8, 0.00,60.00,Tuesday
6,-0.525
7,27.909590338423329
8,21.988652503334394
9,9.459469706484099
10,24.581733973591186
2,3, 1, 3, 0, 9, 0.00,60.00,Tuesday
6,3.55
7,37.912089101485928
8,32.11503523023309
9,13.180806193454801
10,34.79532866501955
2,3, 1, 3, 0,10, 0.00,60.00,Tuesday
6,7.812499999999999
7,43.932817382121218
8,39.22035035203547
9,15.387548673931983
10,41.37039896180171
2,3, 1, 3, 0,11, 0.00,60.00,Tuesday
6,10.6375
7,43.365064140815338
8,39.61946850234986
9,16.82542520261169
10,40.6531397317739
2,3, 1, 3, 0,12, 0.00,60.00,Tuesday
6,12.3125
7,40.03418856506175
8,37.78427072379283
9,17.213803498592559
10,37.85731120173883
2,3, 1, 3, 0,13, 0.00,60.00,Tuesday
6,13.05
7,37.18568526140345
8,35.37352197890889
9,16.808985671189519
10,35.047190819402569
2,3, 1, 3, 0,14, 0.00,60.00,Tuesday
6,13.0125
7,38.408232124377587
8,36.30798975784843
9,16.886114020281228
10,34.94899536454765
2,3, 1, 3, 0,15, 0.00,60.00,Tuesday
6,12.462499999999999
7,37.98314876556637
8,34.85492180227148
9,16.77388150096057
10,31.982663764698044
2,3, 1, 3, 0,16, 0.00,60.00,Tuesday
6,12.2
7,31.8643722016996
8,28.82515096870008
9,15.717953390567434
10,25.592305264840044
2,3, 1, 3, 0,17, 0.00,60.00,Tuesday
6,10.95
7,19.526767074036685
8,18.334934774136486
9,13.615920812341069
10,16.621392720329493
2,3, 1, 3, 0,18, 0.00,60.00,Tuesday
6,8.450000000000001
7,10.078937059912978
8,10.568656323078166
9,11.559587810900848
10,10.0116876763536
2,3, 1, 3, 0,19, 0.00,60.00,Tuesday
6,4.9625
7,6.059333288674485
8,6.740230867970642
9,9.612939402082417
10,6.368051113563891
2,3, 1, 3, 0,20, 0.00,60.00,Tuesday
6,2.3125
7,3.574339050997817
8,4.065213594680575
9,8.554817972224502
10,3.717197099726254
2,3, 1, 3, 0,21, 0.00,60.00,Tuesday
6,0.9125
7,2.1338264785093905
8,2.481359389154968
9,7.90115909941124
10,2.151495830960457
2,3, 1, 3, 0,22, 0.00,60.00,Tuesday
6,1.3877787807814458e-17
7,1.0050017405521588
8,1.183175904624306
9,7.447024327562732
10,0.8567960986800483
2,3, 1, 3, 0,23, 0.00,60.00,Tuesday
6,-0.8
7,0.2433687546719892
8,0.2853055062881886
9,7.077603657904469
10,-0.025835889845395894
2,3, 1, 3, 0,24, 0.00,60.00,Tuesday
6,-1.225
7,-0.3815759623516054
8,-0.48268274615440889
9,6.786864038046761
10,-0.7812567419479592
2,4, 1, 4, 0, 1, 0.00,60.00,Wednesday
6,-1.1750000000000003
7,-0.6119866808397197
8,-0.8313101386297077
9,6.607964192478377
10,-1.1151770924121416
2,4, 1, 4, 0, 2, 0.00,60.00,Wednesday
6,-1.725
7,-1.0833709877820197
8,-1.378162901770168
9,6.3620304091856589
10,-1.6519816918057378
2,4, 1, 4, 0, 3, 0.00,60.00,Wednesday
6,-2.8499999999999998
7,-1.8302512799785953
8,-2.2375200632187446
9,5.961586820372316
10,-2.498881536157701
2,4, 1, 4, 0, 4, 0.00,60.00,Wednesday
6,-3.4875
7,-2.4767448068754156
8,-2.9777760088724256
9,5.600104850931979
10,-3.226058735439631
2,4, 1, 4, 0, 5, 0.00,60.00,Wednesday
6,-4.2875000000000009
7,-3.1122478980890726
8,-3.699087843040439
9,5.223150584837796
10,-3.9378971039112518
2,4, 1, 4, 0, 6, 0.00,60.00,Wednesday
6,-4.3875
7,3.58105471255916
8,1.9122671148810385
9,5.299957917696925
10,2.5347077504914585
2,4, 1, 4, 0, 7, 0.00,60.00,Wednesday
6,-2.5125
7,17.598342632855965
8,12.55043604083874
9,7.760139438370263
10,14.613992227810393
2,4, 1, 4, 0, 8, 0.00,60.00,Wednesday
6,0.3124999999999999
7,27.19072156279904
8,20.86269307240201
9,9.459287180287494
10,23.543782824918627
2,4, 1, 4, 0, 9, 0.00,60.00,Wednesday
6,4.3999999999999999
7,36.630099383957908
8,30.37388570104676
9,12.982618538377246
10,33.181065725436948
2,4, 1, 4, 0,10, 0.00,60.00,Wednesday
6,8.1375
7,42.5850159033718
8,37.68582441119396
9,15.206401869299139
10,39.83131807795117
2,4, 1, 4, 0,11, 0.00,60.00,Wednesday
6,10.55
7,44.962834165776559
8,42.45911157125752
9,16.81043673965607
10,43.426817766465799
2,4, 1, 4, 0,12, 0.00,60.00,Wednesday
6,12.2375
7,44.677529101721727
8,43.79271287345269
9,17.833315780719194
10,43.84347132080295
2,4, 1, 4, 0,13, 0.00,60.00,Wednesday
6,13.3
7,43.36303183148853
8,42.04814782463635
9,18.002616583411855
10,41.61023059501622
2,4, 1, 4, 0,14, 0.00,60.00,Wednesday
6,14.1
7,39.35005720198142
8,37.152879608479867
9,17.50979851463209
10,35.767962696136049
2,4, 1, 4, 0,15, 0.00,60.00,Wednesday
6,13.649999999999999
7,36.37037733237031
8,33.487122816095439
9,16.795605795603664
10,30.956953327557913
2,4, 1, 4, 0,16, 0.00,60.00,Wednesday
6,12.7625
7,30.60389014368419
8,28.043316390042805
9,15.639261602894195
10,25.12298473188467
2,4, 1, 4, 0,17, 0.00,60.00,Wednesday
6,11.187499999999999
7,18.532346749665125
8,18.018687975602079
9,13.613336656906622
10,16.792518689775965
2,4, 1, 4, 0,18, 0.00,60.00,Wednesday
6,8.4
7,9.803764659712684
8,10.462578743589806
9,11.48736545954435
10,9.973558062520537
2,4, 1, 4, 0,19, 0.00,60.00,Wednesday
6,5.0125
7,5.831998000429296
8,6.556224193782624
9,9.598895570294419
10,6.176341186640819
2,4, 1, 4, 0,20, 0.00,60.00,Wednesday
6,2.6375
7,3.4318452700884816
8,3.9907323606296924
9,8.576400700718733
10,3.622259664006119
2,4, 1, 4, 0,21, 0.00,60.00,Wednesday
6,1.5624999999999998
7,2.1114021098788275
8,2.489567676764907
9,7.999065141532815
10,2.1287658181772808
2,4, 1, 4, 0,22, 0.00,60.00,Wednesday
6,1.3624999999999999
7,1.4689848187511668
8,1.6875721766786943
9,7.702380974679965
10,1.3357236415148455
2,4, 1, 4, 0,23, 0.00,60.00,Wednesday
6,0.7124999999999999
7,1.0633180428442278
8,1.1532038157845548
9,7.419560510685806
10,0.8210076462563432
2,4, 1, 4, 0,24, 0.00,60.00,Wednesday
6,-0.1375
7,0.33954854357925859
8,0.32578541339994768
9,7.097408347519167
10,0.012572145706012936
2,5, 1, 5, 0, 1, 0.00,60.00,Thursday
6,-0.7125
7,-0.4187051214096658
8,-0.5788866475670512
9,6.796906524829294
10,-0.8848771618672278
2,5, 1, 5, 0, 2, 0.00,60.00,Thursday
6,-1.525
7,-0.9485702711126258
8,-1.2267990562852216
9,6.466247717446834
10,-1.5168708603785089
2,5, 1, 5, 0, 3, 0.00,60.00,Thursday
6,-2.0875
7,-1.4102673127789436
8,-1.7802881123922386
9,6.159471078161021
10,-2.0524869832590459
2,5, 1, 5, 0, 4, 0.00,60.00,Thursday
6,-2.5749999999999999
7,-1.8708769989274912
8,-2.324139209643318
9,5.870859373098577
10,-2.583276655822332
2,5, 1, 5, 0, 5, 0.00,60.00,Thursday
6,-2.8625
7,-2.290621729261239
8,-2.8328254525983578
9,5.599781646635934
10,-3.0803166633670808
2,5, 1, 5, 0, 6, 0.00,60.00,Thursday
6,-3.2125
7,2.749994129442025
8,1.767545144449384
9,5.657551020550014
10,1.755105188308148
2,5, 1, 5, 0, 7, 0.00,60.00,Thursday
6,-2.9
7,14.85864328010752
8,11.366663045715251
9,7.7724947472986189
10,12.694454421844002
2,5, 1, 5, 0, 8, 0.00,60.00,Thursday
6,0.2124999999999999
7,24.01361773173058
8,19.58657997867546
9,9.442731149850968
10,21.21382776496756
2,5, 1, 5, 0, 9, 0.00,60.00,Thursday
6,4.5249999999999999
7,32.98678093181236
8,28.68155528337031
9,12.760361782168209
10,30.327672664866016
2,5, 1, 5, 0,10, 0.00,60.00,Thursday
6,7.975
7,40.24508711700781
8,36.469007361927598
9,14.792698582752536
10,37.804892511919778
2,5, 1, 5, 0,11, 0.00,60.00,Thursday
6,10.6625
7,39.697071444991767
8,36.73166454985016
9,15.816852167000573
10,37.16287335617483
2,5, 1, 5, 0,12, 0.00,60.00,Thursday
6,12.1
7,29.759073913685197
8,27.529255782561394
9,14.809773955501257
10,27.473147610894885
2,5, 1, 5, 0,13, 0.00,60.00,Thursday
6,11.962499999999999
7,23.63524840986261
8,22.354996094056618
9,13.548043659107972
10,22.22017449273856
2,5, 1, 5, 0,14, 0.00,60.00,Thursday
6,11.0125
7,22.639385709112355
8,21.410211666513985
9,13.082355076338848
10,21.24414810168428
2,5, 1, 5, 0,15, 0.00,60.00,Thursday
6,9.2875
7,20.00422940372268
8,18.83653349393081
9,12.585108125813943
10,18.660155028446647
2,5, 1, 5, 0,16, 0.00,60.00,Thursday
6,8.375
7,14.348669760884532
8,13.609079369249525
9,11.45882676035524
10,13.472025564698292
2,5, 1, 5, 0,17, 0.00,60.00,Thursday
6,5.55
7,8.492494729888094
8,8.462009213121047
9,9.904124875197488
10,8.259122354834897
2,5, 1, 5, 0,18, 0.00,60.00,Thursday
6,3.0875
7,4.371768848312629
8,4.550647932202313
9,8.950613934441796
10,4.315634734600204
2,5, 1, 5, 0,19, 0.00,60.00,Thursday
6,2.7249999999999998
7,2.9457239886345074
8,3.1111552626514067
9,7.705944000969635
10,2.858851725066036
2,5, 1, 5, 0,20, 0.00,60.00,Thursday
6,2.9875
7,2.535054447653366
8,2.6376621562336757
9,7.498990476190983
10,2.374351561384221
2,5, 1, 5, 0,21, 0.00,60.00,Thursday
6,3.0375
7,2.3133491500532639
8,2.305315002496914
9,7.366831546921205
10,2.0375290621721606
2,5, 1, 5, 0,22, 0.00,60.00,Thursday
6,2.9375000000000006
7,2.147352630449096
8,2.0739654394554685
9,7.240615590537835
10,1.8112490647306239
2,5, 1, 5, 0,23, 0.00,60.00,Thursday
6,2.9625
7,2.068275554850905
8,1.912229507444928
9,7.1365326137381219
10,1.6547707331633439
2,5, 1, 5, 0,24, 0.00,60.00,Thursday
6,2.8125
7,2.1345230134787638
8,1.9647281199997509
9,7.024077272189073
10,1.7205503953737734
2,6, 1, 6, 0, 1, 0.00,60.00,Friday
6,2.2
7,1.8586300934871956
8,1.6292260991106183
9,6.803865341348305
10,1.3966803773490022
2,6, 1, 6, 0, 2, 0.00,60.00,Friday
6,0.775
7,0.9656190843459278
8,0.7163318570218485
9,6.407220850105954
10,0.49357153531112998
2,6, 1, 6, 0, 3, 0.00,60.00,Friday
6,0.28750000000000006
7,-0.03469305691461912
8,-0.4292283349504056
9,6.072258455361066
10,-0.6537622930485996
2,6, 1, 6, 0, 4, 0.00,60.00,Friday
6,0.7125
7,-0.18463785454554167
8,-0.6786883674947435
9,5.961160629081974
10,-0.8997139862354184
2,6, 1, 6, 0, 5, 0.00,60.00,Friday
6,0.9
7,0.1379060266120195
8,-0.3501081322726295
9,5.872427876845526
10,-0.55679099422816
2,6, 1, 6, 0, 6, 0.00,60.00,Friday
6,0.7125
7,5.567295003749155
8,4.989609013636855
9,6.061226240101787
10,4.863786491301781
2,6, 1, 6, 0, 7, 0.00,60.00,Friday
6,1.1625
7,14.48459554049953
8,12.097345881394326
9,7.737027698498599
10,12.50439145997975
2,6, 1, 6, 0, 8, 0.00,60.00,Friday
6,2.125
7,19.630316081147759
8,16.637059599701837
9,8.915182660229912
10,17.04003139262429
2,6, 1, 6, 0, 9, 0.00,60.00,Friday
6,3.1874999999999997
7,25.09045969385567
8,21.82295820600573
9,11.127565875421839
10,22.21363945173267
2,6, 1, 6, 0,10, 0.00,60.00,Friday
6,4.7875
7,31.163320226503119
8,27.367281121464019
9,12.619629793233408
10,27.947679044439526
2,6, 1, 6, 0,11, 0.00,60.00,Friday
6,6.75
7,35.75993593138806
8,32.408651196691959
9,14.199929981309533
10,32.83038440526268
2,6, 1, 6, 0,12, 0.00,60.00,Friday
6,8.5625
7,36.76661937093299
8,34.663595921660469
9,15.411352169732245
10,34.63124315019595
2,6, 1, 6, 0,13, 0.00,60.00,Friday
6,10.200000000000001
7,36.40229929679184
8,34.06392657074314
9,15.818034151217454
10,33.662870476063847
2,6, 1, 6, 0,14, 0.00,60.00,Friday
6,11.2375
7,29.72387785248398
8,27.553980727321194
9,14.813625095012338
10,27.230796196343328
2,6, 1, 6, 0,15, 0.00,60.00,Friday
6,11.562500000000002
7,22.152860088536064
8,21.230694796905863
9,13.342350755021358
10,21.055244277983179
2,6, 1, 6, 0,16, 0.00,60.00,Friday
6,9.1625
7,15.449778008973432
8,15.117470108172809
9,11.8268055114579
10,14.987513731937176
2,6, 1, 6, 0,17, 0.00,60.00,Friday
6,5.762500000000001
7,8.573750651420675
8,8.582340822848125
9,9.92932129839169
10,8.436521158812188
2,6, 1, 6, 0,18, 0.00,60.00,Friday
6,2.6625
7,4.121698571682619
8,4.331378937715048
9,8.723842742126916
10,4.173232870080046
2,6, 1, 6, 0,19, 0.00,60.00,Friday
6,1.5
7,1.9774667452791178
8,2.0690433305113307
9,7.295414668975123
10,1.903908812441336
2,6, 1, 6, 0,20, 0.00,60.00,Friday
6,1.5
7,1.467745594877551
8,1.4684754862230574
9,6.890001776134191
10,1.3025854476998027
2,6, 1, 6, 0,21, 0.00,60.00,Friday
6,0.5625
7,0.8546475251007818
8,0.7848330686112983
9,6.540608268579378
10,0.6216968061758298
2,6, 1, 6, 0,22, 0.00,60.00,Friday
6,0.0
7,0.12131003469880149
8,-0.0884249364119916
9,6.216361428264124
10,-0.25014703801879437
2,6, 1, 6, 0,23, 0.00,60.00,Friday
6,0.0625
7,-0.0921298425289741
8,-0.400827393136184
9,6.055620093668622
10,-0.5604741000763246
2,6, 1, 6, 0,24, 0.00,60.00,Friday
6,0.0375
7,-0.1935235035692771
8,-0.5622146600779514
9,5.919707540112844
10,-0.719663446696123
2,7, 1, 7, 0, 1, 0.00,60.00,Saturday
6,0.0
7,-0.3698017650505593
8,-0.7944067970510407
9,5.777104623763012
10,-0.947989945890563
2,7, 1, 7, 0, 2, 0.00,60.00,Saturday
6,0.125
7,-0.5196587181243388
8,-1.0089285371319892
9,5.659205267581582
10,-1.1603215255370452
2,7, 1, 7, 0, 3, 0.00,60.00,Saturday
6,0.2625
7,-0.38799092853735198
8,-0.9060966783798912
9,5.56093302323386
10,-1.0535776094334469
2,7, 1, 7, 0, 4, 0.00,60.00,Saturday
6,0.1125
7,-0.543247417084698
8,-1.0723707405161794
9,5.4161394497726429
10,-1.2160889599065313
2,7, 1, 7, 0, 5, 0.00,60.00,Saturday
6,-0.0625
7,-0.96524593277249
8,-1.5835500591451846
9,5.221398887079009
10,-1.7270066672239799
2,7, 1, 7, 0, 6, 0.00,60.00,Saturday
6,0.14999999999999998
7,2.6435233656877195
8,2.0328537657901335
9,5.338191733992787
10,1.91781317861337
2,7, 1, 7, 0, 7, 0.00,60.00,Saturday
6,0.6749999999999999
7,6.999900966982972
8,6.40557342962166
9,6.595659222305218
10,6.292579565430919
2,7, 1, 7, 0, 8, 0.00,60.00,Saturday
6,1.275
7,14.085628600366722
8,12.579823273136384
9,7.493058496393984
10,12.63222194961967
2,7, 1, 7, 0, 9, 0.00,60.00,Saturday
6,2.375
7,28.634938830786706
8,25.395849392813888
9,10.710604685013342
10,26.465146385050763
2,7, 1, 7, 0,10, 0.00,60.00,Saturday
6,4.5874999999999999
7,36.164631063257079
8,32.4692084392269
9,12.827751240956403
10,33.47715426106102
2,7, 1, 7, 0,11, 0.00,60.00,Saturday
6,6.9125
7,38.02407866653921
8,35.14163588756516
9,14.140989843074433
10,35.6481338398618
2,7, 1, 7, 0,12, 0.00,60.00,Saturday
6,9.075000000000001
7,31.777921896231097
8,29.661293731256799
9,13.77552832264147
10,29.65835269013418
2,7, 1, 7, 0,13, 0.00,60.00,Saturday
6,10.025
7,22.327524667528093
8,21.186881080496009
9,12.292477901491719
10,21.114886359764804
2,7, 1, 7, 0,14, 0.00,60.00,Saturday
6,8.912499999999998
7,16.98536702265874
8,16.36804455755035
9,11.1117788031345
10,16.304503896897786
2,7, 1, 7, 0,15, 0.00,60.00,Saturday
6,6.887499999999999
7,10.589586860306257
8,10.34539004245578
9,9.60192635016274
10,10.254341410648962
2,7, 1, 7, 0,16, 0.00,60.00,Saturday
6,5.0375
7,7.269931362868707
8,7.287362974427091
9,8.345750981153678
10,7.180393762899916
2,7, 1, 7, 0,17, 0.00,60.00,Saturday
6,3.5250000000000005
7,5.5053935602300829
8,5.436786441407863
9,7.586190900577158
10,5.321977101652759
2,7, 1, 7, 0,18, 0.00,60.00,Saturday
6,2.5625
7,3.181535282564699
8,3.177181288665336
9,7.227666360313206
10,3.0556007948366616
2,7, 1, 7, 0,19, 0.00,60.00,Saturday
6,2.3625
7,2.0882570039509047
8,2.0545715902213788
9,6.308006217597611
10,1.9221272079352248
2,7, 1, 7, 0,20, 0.00,60.00,Saturday
6,2.3374999999999996
7,1.98094722576702
8,1.9277437041824817
9,6.125536842815371
10,1.793978431709686
2,7, 1, 7, 0,21, 0.00,60.00,Saturday
6,2.1125
7,1.7171856320387269
8,1.5975929595637153
9,5.966286486797521
10,1.4628549066368102
2,7, 1, 7, 0,22, 0.00,60.00,Saturday
6,1.8125000000000003
7,1.1053152947338643
8,0.927559520396489
9,5.790876400099976
10,0.7889918437948603
2,7, 1, 7, 0,23, 0.00,60.00,Saturday
6,1.7
7,0.5898997429951812
8,0.2899895646719341
9,5.628823820528196
10,0.14700673817341393
2,7, 1, 7, 0,24, 0.00,60.00,Saturday
6,2.075
7,0.6990860242465034
8,0.3488464347927713
9,5.584680652510336
10,0.20742939051023569
2,8, 1, 8, 0, 1, 0.00,60.00,Sunday
6,2.425
7,1.264155800513833
8,0.9387781734007888
9,5.5982519541864
10,0.8041838821393077
2,8, 1, 8, 0, 2, 0.00,60.00,Sunday
6,2.5
7,1.5448408032013983
8,1.2381044617788475
9,5.570530130041259
10,1.1110536324621872
2,8, 1, 8, 0, 3, 0.00,60.00,Sunday
6,2.4375
7,1.3619903996591086
8,1.0207634422895587
9,5.480821878071996
10,0.8960699415861698
2,8, 1, 8, 0, 4, 0.00,60.00,Sunday
6,2.15
7,1.0476078682616464
8,0.6550683418837455
9,5.321989025796675
10,0.5318740106960399
2,8, 1, 8, 0, 5, 0.00,60.00,Sunday
6,2.0
7,0.8205230894681177
8,0.39304810687661348
9,5.170888554903515
10,0.27331176862700087
2,8, 1, 8, 0, 6, 0.00,60.00,Sunday
6,1.8749999999999998
7,4.282844488818238
8,3.817819832750588
9,5.282049216225872
10,3.6977332166541845
2,8, 1, 8, 0, 7, 0.00,60.00,Sunday
6,2.3000000000000004
7,7.089997024903276
8,6.553635498680729
9,6.229796965543502
10,6.449242037499488
2,8, 1, 8, 0, 8, 0.00,60.00,Sunday
6,2.5375
7,11.455006466242712
8,10.290466698838433
9,6.7882794235012959
10,10.312222608821385
2,8, 1, 8, 0, 9, 0.00,60.00,Sunday
6,3.0625000000000006
7,24.447208480923494
8,21.087544725629408
9,9.545067732573534
10,21.84099176485852
2,8, 1, 8, 0,10, 0.00,60.00,Sunday
6,4.8999999999999999
7,32.50664532800728
8,28.681129543382015
9,11.646440291358062
10,29.393053887764606
2,8, 1, 8, 0,11, 0.00,60.00,Sunday
6,6.9875
7,35.69072620060904
8,32.45017677586388
9,13.012463120893714
10,32.776100764348168
2,8, 1, 8, 0,12, 0.00,60.00,Sunday
6,9.325
7,33.50445890669591
8,30.95466044874845
9,13.39559571476525
10,30.932431907273636
2,8, 1, 8, 0,13, 0.00,60.00,Sunday
6,9.862499999999999
7,23.261469217843474
8,21.86187911496497
9,12.054294863839829
10,21.778250302187975
2,8, 1, 8, 0,14, 0.00,60.00,Sunday
6,7.7875
7,16.580844830009608
8,15.81498604146157
9,10.588700141375109
10,15.744091133979254
2,8, 1, 8, 0,15, 0.00,60.00,Sunday
6,6.012499999999999
7,11.478267738047253
8,10.858240355338927
9,9.259387839067419
10,10.785045380556002
2,8, 1, 8, 0,16, 0.00,60.00,Sunday
6,4.6625
7,6.951118806989426
8,6.8199136730842488
9,7.933952986514955
10,6.7239403947725269
2,8, 1, 8, 0,17, 0.00,60.00,Sunday
6,4.1
7,5.025926931077604
8,4.975480931434736
9,7.1379915443841439
10,4.865937361291008
2,8, 1, 8, 0,18, 0.00,60.00,Sunday
6,1.5999999999999997
7,2.4390567141202288
8,2.521166934351816
9,6.734853285864258
10,2.4028021701140136
2,8, 1, 8, 0,19, 0.00,60.00,Sunday
6,0.1
7,0.022472973714663198
8,-0.07392922983834666
9,5.479147891213588
10,-0.20695646723203743
2,8, 1, 8, 0,20, 0.00,60.00,Sunday
6,0.1
7,-0.6020934612586666
8,-0.8132067828659895
9,5.149846058478158
10,-0.9517469724011325
2,8, 1, 8, 0,21, 0.00,60.00,Sunday
6,0.0375
7,-0.5352678457719154
8,-0.8239588906775409
9,4.985764758689188
10,-0.9613294297344476
2,8, 1, 8, 0,22, 0.00,60.00,Sunday
6,-0.0625
7,-0.34721568566807
8,-0.6233973195433185
9,4.87693140437941
10,-0.7553494854315148
2,8, 1, 8, 0,23, 0.00,60.00,Sunday
6,-0.1
7,-0.5552796264390545
8,-0.9122854511256769
9,4.766659139259154
10,-1.0449311562467206
2,8, 1, 8, 0,24, 0.00,60.00,Sunday
6,-0.16250000000000004
7,-0.6784432049978787
8,-1.087139221889046
9,4.652843848746368
10,-1.2185017907997636
2,9, 1, 9, 0, 1, 0.00,60.00,Monday
6,-0.1375
7,-0.8173982301196849
8,-1.2625502390304778
9,4.550693893846995
10,-1.3922534631476163
2,9, 1, 9, 0, 2, 0.00,60.00,Monday
6,-0.1
7,-1.0442770674923932
8,-1.5422077276656712
9,4.444279403104792
10,-1.671235928826712
2,9, 1, 9, 0, 3, 0.00,60.00,Monday
6,-0.0375
7,-1.124620198663946
8,-1.6682449398164375
9,4.337080948270684
10,-1.7948986862419372
2,9, 1, 9, 0, 4, 0.00,60.00,Monday
6,0.1875
7,-1.0165681737310553
8,-1.5696306400173937
9,4.271128089388472
10,-1.6933846422075576
2,9, 1, 9, 0, 5, 0.00,60.00,Monday
6,0.175
7,-0.979292762606047
8,-1.541335838716309
9,4.176235565302822
10,-1.6613153394682474
2,9, 1, 9, 0, 6, 0.00,60.00,Monday
6,0.1
7,3.229094324782114
8,2.7187974960920249
9,4.325498054331069
10,2.614004394132267
2,9, 1, 9, 0, 7, 0.00,60.00,Monday
6,0.35
7,10.660820019176228
8,9.449757737608051
9,5.686322200736184
10,9.455350467277814
2,9, 1, 9, 0, 8, 0.00,60.00,Monday
6,1.125
7,18.90005588407875
8,16.38035103521773
9,7.015768136152852
10,16.830067122817249
2,9, 1, 9, 0, 9, 0.00,60.00,Monday
6,2.8125
7,18.06049760801405
8,16.038982089103528
9,8.470875293937102
10,16.148607494573836
2,9, 1, 9, 0,10, 0.00,60.00,Monday
6,4.1
7,20.5950539838947
8,18.42525687503668
9,9.11628754145004
10,18.45803412837829
2,9, 1, 9, 0,11, 0.00,60.00,Monday
6,5.4
7,29.78497155499902
8,26.944386244309919
9,10.878615922030548
10,27.078266205673225
2,9, 1, 9, 0,12, 0.00,60.00,Monday
6,7.25
7,32.451399973245198
8,30.184723734006103
9,12.121852596516466
10,30.131958851717707
2,9, 1, 9, 0,13, 0.00,60.00,Monday
6,8.75
7,25.919741583072047
8,23.96466288793852
9,11.615376332743047
10,23.8126742668793
2,9, 1, 9, 0,14, 0.00,60.00,Monday
6,7.7
7,27.95528094817462
8,25.677243966319766
9,11.729954471352706
10,24.79691026806984
2,9, 1, 9, 0,15, 0.00,60.00,Monday
6,7.3625
7,28.2457347145319
8,25.998647410502305
9,11.946635194039665
10,24.273632992624635
2,9, 1, 9, 0,16, 0.00,60.00,Monday
6,8.2
7,16.048914280888547
8,15.309435032559659
9,10.276855452332472
10,14.74342835866927
2,9, 1, 9, 0,17, 0.00,60.00,Monday
6,6.0
7,8.306646920007064
8,8.2673972753703
9,8.387925480574236
10,8.0954947106635
2,9, 1, 9, 0,18, 0.00,60.00,Monday
6,2.4375
7,3.6037879389128739
8,3.8090217522736635
9,7.026638680901218
10,3.666090068936745
2,9, 1, 9, 0,19, 0.00,60.00,Monday
6,0.38749999999999998
7,0.9922943296049525
8,1.1054199357820079
9,5.543924956758819
10,0.9650357697549646
2,9, 1, 9, 0,20, 0.00,60.00,Monday
6,-0.28750000000000006
7,-0.09317170841996742
8,-0.09796571381164307
9,5.01033721571032
10,-0.23336273435905126
2,9, 1, 9, 0,21, 0.00,60.00,Monday
6,-0.5874999999999999
7,-0.5591449175067874
8,-0.6772963157088168
9,4.739702414071045
10,-0.8070495435390793
2,9, 1, 9, 0,22, 0.00,60.00,Monday
6,-0.7
7,-0.9058631121646101
8,-1.1183054104145492
9,4.566661856436431
10,-1.2429168636301827
2,9, 1, 9, 0,23, 0.00,60.00,Monday
6,-0.7625
7,-1.1279575893096657
8,-1.4352899434392766
9,4.434066755041806
10,-1.555571748383819
2,9, 1, 9, 0,24, 0.00,60.00,Monday
6,-0.8
7,-1.2701358765766813
8,-1.633406476737603
9,4.322399780224897
10,-1.7484690691085639
2,10, 1,10, 0, 1, 0.00,60.00,Tuesday
6,-0.8
7,-1.4446985301775877
8,-1.8803855401288774
9,4.215644808008246
10,-1.9922455916352547
2,10, 1,10, 0, 2, 0.00,60.00,Tuesday
6,-0.8
7,-1.5232829750820392
8,-2.0064976695544347
9,4.109695114313548
10,-2.114535878459786
2,10, 1,10, 0, 3, 0.00,60.00,Tuesday
6,-0.925
7,-1.6386093526647859
8,-2.15713359551329
9,3.9805089307387826
10,-2.261360782024452
2,10, 1,10, 0, 4, 0.00,60.00,Tuesday
6,-1.0
7,-1.767043508023475
8,-2.327697908687696
9,3.8449493578896445
10,-2.428463288508875
2,10, 1,10, 0, 5, 0.00,60.00,Tuesday
6,-0.875
7,-1.7879471523246556
8,-2.3761289283494446