Program Version,EnergyPlus, Version 8.7.0-78a111df4a, YMD=2023.08.29 21:39
1,5,Environment Title[],Latitude[deg],Longitude[deg],Time Zone[],Elevation[m]
2,6,Day of Simulation[],Month[],Day of Month[],DST Indicator[1=yes 0=no],Hour[],StartMinute[],EndMinute[],DayType
3,3,Cumulative Day of Simulation[],Month[],Day of Month[],DST Indicator[1=yes 0=no],DayType  ! When Daily Report Variables Requested
4,2,Cumulative Days of Simulation[],Month[]  ! When Monthly Report Variables Requested
5,1,Cumulative Days of Simulation[] ! When Run Period Report Variables Requested
6,1,Environment,Site Outdoor Air Drybulb Temperature [C] !Hourly
7,1,ATICO CEN,Zone Mean Air Temperature [C] !Hourly
8,1,ATICO E,Zone Mean Air Temperature [C] !Hourly
9,1,MODULO,Zone Mean Air Temperature [C] !Hourly
10,1,ATICO O,Zone Mean Air Temperature [C] !Hourly
End of Data Dictionary
1,2022, -15.85, -71.09,  -5.00,4469.00
2,1, 1, 1, 0, 1, 0.00,60.00,Sunday
6,1.4124999999999999
7,2.2326310194838414
8,0.6433654054389493
9,8.11553022115935
10,0.3433085920734994
2,1, 1, 1, 0, 2, 0.00,60.00,Sunday
6,1.9
7,2.4513484429066416
8,1.2292490691078367
9,8.102664746396158
10,0.9475208198164465
2,1, 1, 1, 0, 3, 0.00,60.00,Sunday
6,1.7125
7,2.322928422536272
8,1.028727936567436
9,7.992431616121992
10,0.7565371643383311
2,1, 1, 1, 0, 4, 0.00,60.00,Sunday
6,1.0375
7,1.7071001677766092
8,0.299184738134489
9,7.826642075547255
10,0.02986043103937184
2,1, 1, 1, 0, 5, 0.00,60.00,Sunday
6,0.7625
7,1.2959591694761815
8,-0.2164962807449773
9,7.620957549517128
10,-0.47508915700135548
2,1, 1, 1, 0, 6, 0.00,60.00,Sunday
6,0.55
7,7.053643525629936
8,5.392531283833037
9,7.7590261091463
10,5.964802264434063
2,1, 1, 1, 0, 7, 0.00,60.00,Sunday
6,2.4625000000000005
7,18.648462018736873
8,15.957734083187284
9,8.846910967016264
10,17.81850919251409
2,1, 1, 1, 0, 8, 0.00,60.00,Sunday
6,5.575
7,26.808764040881149
8,25.075253527148804
9,10.224109004607154
10,27.590575334537819
2,1, 1, 1, 0, 9, 0.00,60.00,Sunday
6,8.2625
7,33.99141201880338
8,33.854583907276197
9,11.799779862794403
10,36.624561678679658
2,1, 1, 1, 0,10, 0.00,60.00,Sunday
6,10.200000000000001
7,37.55650300573908
8,39.53421795696024
9,13.351492565267656
10,41.42787431301048
2,1, 1, 1, 0,11, 0.00,60.00,Sunday
6,11.3
7,37.448281591870628
8,40.740805207303569
9,14.390037174021533
10,41.46214798288654
2,1, 1, 1, 0,12, 0.00,60.00,Sunday
6,12.1625
7,35.14057680939449
8,38.92920678329722
9,14.65467169577248
10,38.93837712180853
2,1, 1, 1, 0,13, 0.00,60.00,Sunday
6,12.749999999999999
7,28.11438333572345
8,30.437148007169485
9,13.77243673675739
10,30.249587479262489
2,1, 1, 1, 0,14, 0.00,60.00,Sunday
6,13.087499999999999
7,18.351841546151119
8,19.612420333969728
9,12.214094956052165
10,19.409368346302306
2,1, 1, 1, 0,15, 0.00,60.00,Sunday
6,9.1375
7,13.124394473907508
8,14.342120851090709
9,10.899776418010762
10,14.139422355249497
2,1, 1, 1, 0,16, 0.00,60.00,Sunday
6,5.887500000000001
7,9.461460974299693
8,9.477670245814418
9,9.733366970730457
10,9.25273343505281
2,1, 1, 1, 0,17, 0.00,60.00,Sunday
6,4.025
7,7.62385968717202
8,7.546805244946668
9,9.622360466785631
10,7.287865679215611
2,1, 1, 1, 0,18, 0.00,60.00,Sunday
6,2.3875
7,4.473370305415277
8,4.142345565332698
9,9.289424297129397
10,3.842608758332662
2,1, 1, 1, 0,19, 0.00,60.00,Sunday
6,2.4000000000000005
7,3.248890058460315
8,2.452032582907527
9,8.914092058529242
10,2.131988437677904
2,1, 1, 1, 0,20, 0.00,60.00,Sunday
6,2.575
7,3.3396934777986049
8,2.393159043225343
9,8.754834697653357
10,2.072682282472778
2,1, 1, 1, 0,21, 0.00,60.00,Sunday
6,2.375
7,2.9989560892818085
8,2.030005930772074
9,8.655646541803382
10,1.7067528068886156
2,1, 1, 1, 0,22, 0.00,60.00,Sunday
6,1.8625000000000003
7,2.4711670673593408
8,1.4259903881946672
9,8.561466985225824
10,1.097940035081687
2,1, 1, 1, 0,23, 0.00,60.00,Sunday
6,1.4125
7,2.080204179366551
8,0.8166368789014924
9,8.409017492315908
10,0.48890579123452307
2,1, 1, 1, 0,24, 0.00,60.00,Sunday
6,0.8625
7,1.8017457694364668
8,0.4452104137360019
9,8.255199799291033
10,0.12874119762797557
2,2, 1, 2, 0, 1, 0.00,60.00,Monday
6,0.35
7,1.5152682183403559
8,0.04193369099648257
9,8.08253861374319
10,-0.2615437760597279
2,2, 1, 2, 0, 2, 0.00,60.00,Monday
6,0.1375
7,1.3985608981804623
8,-0.21215543356200215
9,7.895396781632151
10,-0.5020854971635623
2,2, 1, 2, 0, 3, 0.00,60.00,Monday
6,0.0375
7,1.125677304398078
8,-0.4562950309234377
9,7.759658479743139
10,-0.7352953950053495
2,2, 1, 2, 0, 4, 0.00,60.00,Monday
6,-0.125
7,0.8530719585751254
8,-0.8098201195890783
9,7.589064330550467
10,-1.079969243322823
2,2, 1, 2, 0, 5, 0.00,60.00,Monday
6,-0.7625000000000001
7,0.4744204594736813
8,-1.273171156169064
9,7.391317837439271
10,-1.5315654768465104
2,2, 1, 2, 0, 6, 0.00,60.00,Monday
6,-0.975
7,6.4604291748149909
8,4.764512540889024
9,7.572910828188896
10,5.217410886156853
2,2, 1, 2, 0, 7, 0.00,60.00,Monday
6,0.16250000000000004
7,16.944410349999815
8,14.01435831998111
9,8.45139243209272
10,15.781955683617804
2,2, 1, 2, 0, 8, 0.00,60.00,Monday
6,2.9250000000000004
7,23.759971504363017
8,20.87486081489416
9,9.585273919302445
10,23.313505960576486
2,2, 1, 2, 0, 9, 0.00,60.00,Monday
6,6.324999999999999
7,31.28127309049828
8,30.039082532338634
9,11.132532368407368
10,32.752411554821367
2,2, 1, 2, 0,10, 0.00,60.00,Monday
6,9.0375
7,35.747945151705987
8,36.79796408878542
9,12.779985242922268
10,38.82495977626537
2,2, 1, 2, 0,11, 0.00,60.00,Monday
6,10.5875
7,37.05074466932441
8,40.205564485611407
9,14.122746596334317
10,40.96652061048025
2,2, 1, 2, 0,12, 0.00,60.00,Monday
6,12.000000000000002
7,36.77941909300712
8,41.328505049846658
9,14.982710842148624
10,41.35162112674895
2,2, 1, 2, 0,13, 0.00,60.00,Monday
6,13.599999999999998
7,35.438165536389437
8,39.12241125420097
9,15.170301888767414
10,38.68327094720989
2,2, 1, 2, 0,14, 0.00,60.00,Monday
6,14.575
7,26.236583291331895
8,28.025476671484058
9,13.832938936060615
10,27.614835945877667
2,2, 1, 2, 0,15, 0.00,60.00,Monday
6,12.8
7,19.950304989117073
8,22.65647398377415
9,12.533170065597205
10,22.03671806778573
2,2, 1, 2, 0,16, 0.00,60.00,Monday
6,10.099999999999998
7,14.73727304029773
8,16.960459612792158
9,11.420022000958135
10,16.598954298868976
2,2, 1, 2, 0,17, 0.00,60.00,Monday
6,8.1375
7,11.457818302765297
8,11.800233651449738
9,10.64146969367466
10,11.523005197648459
2,2, 1, 2, 0,18, 0.00,60.00,Monday
6,6.125000000000001
7,7.4721192327486689
8,7.547366318353519
9,10.026321456953442
10,7.267701241965465
2,2, 1, 2, 0,19, 0.00,60.00,Monday
6,5.362500000000001
7,5.554393816000189
8,5.42698146272287
9,9.616373218393762
10,5.123412429193973
2,2, 1, 2, 0,20, 0.00,60.00,Monday
6,4.525
7,4.741355197209916
8,4.4083110514859549
9,9.33648477046303
10,4.095577866426697
2,2, 1, 2, 0,21, 0.00,60.00,Monday
6,3.5
7,4.272363226055618
8,3.6923231472323065
9,9.098511485299861
10,3.392154663460297
2,2, 1, 2, 0,22, 0.00,60.00,Monday
6,2.7625
7,3.5099681457787135
8,2.734055605861286
9,8.92815406362853
10,2.4330009464358857
2,2, 1, 2, 0,23, 0.00,60.00,Monday
6,2.0
7,2.7661453826149686
8,1.8157142522280139
9,8.761674116479267
10,1.5161621599389608
2,2, 1, 2, 0,24, 0.00,60.00,Monday
6,1.3249999999999998
7,2.4203960308930174
8,1.1552116121764425
9,8.546351293627869
10,0.8672437083050943
2,3, 1, 3, 0, 1, 0.00,60.00,Tuesday
6,0.9125000000000001
7,2.1242547047331277
8,0.6589945043176241
9,8.352633060669021
10,0.38492522357922157
2,3, 1, 3, 0, 2, 0.00,60.00,Tuesday
6,0.05000000000000002
7,1.395210973556313
8,-0.11544365637139576
9,8.194838945449739
10,-0.38111194439476528
2,3, 1, 3, 0, 3, 0.00,60.00,Tuesday
6,-0.4625
7,0.8924173105886344
8,-0.7970292463642645
9,7.990180833230946
10,-1.0501164862324362
2,3, 1, 3, 0, 4, 0.00,60.00,Tuesday
6,-0.8750000000000001
7,0.4680348094814791
8,-1.309250103263258
9,7.803279499296588
10,-1.550990107764747
2,3, 1, 3, 0, 5, 0.00,60.00,Tuesday
6,-1.6625
7,-0.02941510272405029
8,-1.9842573363668064
9,7.561729104298369
10,-2.2145481225226755
2,3, 1, 3, 0, 6, 0.00,60.00,Tuesday
6,-2.375
7,5.632765262950665
8,3.7467819014884995
9,7.63567450141714
10,4.298875241552436
2,3, 1, 3, 0, 7, 0.00,60.00,Tuesday
6,-2.1625
7,16.441467316374707
8,13.55905368255646
9,8.525832644947169
10,15.458801258774976
2,3, 1, 3, 0, 8, 0.00,60.00,Tuesday
6,-0.525
7,23.937981191154149
8,21.850813967834797
9,9.713317001234686
10,24.37870373190118
2,3, 1, 3, 0, 9, 0.00,60.00,Tuesday
6,3.55
7,31.983380620675236
8,31.804055003111928
9,11.442705897118002
10,34.40209323740994
2,3, 1, 3, 0,10, 0.00,60.00,Tuesday
6,7.812499999999999
7,36.75050262300353
8,38.6423872201547
9,13.157389255295924
10,40.78719987904686
2,3, 1, 3, 0,11, 0.00,60.00,Tuesday
6,10.6375
7,36.007345072113718
8,39.03923330790015
9,14.296794968409117
10,40.01483724456968
2,3, 1, 3, 0,12, 0.00,60.00,Tuesday
6,12.3125
7,34.23666198038271
8,37.20833240407869
9,14.876105799747183
10,37.26928393338851
2,3, 1, 3, 0,13, 0.00,60.00,Tuesday
6,13.05
7,32.45647963297449
8,34.86177747682444
9,14.662350185212091
10,34.54924118638142
2,3, 1, 3, 0,14, 0.00,60.00,Tuesday
6,13.0125
7,32.85887971582651
8,35.82214507664993
9,14.500417032618929
10,34.47465569070036
2,3, 1, 3, 0,15, 0.00,60.00,Tuesday
6,12.462499999999999
7,29.614110695446337
8,34.206304660051248
9,13.823922762356217
10,31.45626755640729
2,3, 1, 3, 0,16, 0.00,60.00,Tuesday
6,12.2
7,22.219559085423037
8,28.25081090073693
9,12.857724106738687
10,25.07739467440012
2,3, 1, 3, 0,17, 0.00,60.00,Tuesday
6,10.95
7,14.794236734375705
8,18.05528201230416
9,11.723262552735048
10,16.426474802069288
2,3, 1, 3, 0,18, 0.00,60.00,Tuesday
6,8.450000000000001
7,10.228384515470055
8,10.382753913757732
9,10.506512771179878
10,9.865394844545453
2,3, 1, 3, 0,19, 0.00,60.00,Tuesday
6,4.9625
7,7.777239329325661
8,6.678080212298285
9,9.526528684339546
10,6.313241093389289
2,3, 1, 3, 0,20, 0.00,60.00,Tuesday
6,2.3125
7,6.235516006632974
8,4.066689484445655
9,8.645367016607029
10,3.7282575799441064
2,3, 1, 3, 0,21, 0.00,60.00,Tuesday
6,0.9125
7,4.909940428596816
8,2.534951538351571
9,8.324918264037006
10,2.2151603615773927
2,3, 1, 3, 0,22, 0.00,60.00,Tuesday
6,1.3877787807814458e-17
7,3.8610985007924505
8,1.2614814714027097
9,8.275772430005475
10,0.9448112452556439
2,3, 1, 3, 0,23, 0.00,60.00,Tuesday
6,-0.8
7,2.968834388977725
8,0.39085378344506085
9,8.160669646659262
10,0.08969574975676366
2,3, 1, 3, 0,24, 0.00,60.00,Tuesday
6,-1.225
7,1.9373378141575773
8,-0.3717387098049153
9,8.185520575843038
10,-0.6609001938435215
2,4, 1, 4, 0, 1, 0.00,60.00,Wednesday
6,-1.1750000000000003
7,1.2790936250062526
8,-0.7206181037071323
9,8.194838896911263
10,-0.9962793730615454
2,4, 1, 4, 0, 2, 0.00,60.00,Wednesday
6,-1.725
7,0.5213661580249711
8,-1.2655379905765028
9,8.17302958606751
10,-1.5330854289318668
2,4, 1, 4, 0, 3, 0.00,60.00,Wednesday
6,-2.8499999999999998
7,-0.10644402546585058
8,-2.1125101963965244
9,7.9404176043063059
10,-2.3683855847937655
2,4, 1, 4, 0, 4, 0.00,60.00,Wednesday
6,-3.4875
7,-0.6888560937976531
8,-2.83706743250145
9,7.689023856337594
10,-3.0798933074411347
2,4, 1, 4, 0, 5, 0.00,60.00,Wednesday
6,-4.2875000000000009
7,-1.239760401781122
8,-3.5424881484372339
9,7.42126514316723
10,-3.7759857828069069
2,4, 1, 4, 0, 6, 0.00,60.00,Wednesday
6,-4.3875
7,4.4897303188709929
8,2.0900832109434814
9,7.513535073362388
10,2.735663359966625
2,4, 1, 4, 0, 7, 0.00,60.00,Wednesday
6,-2.5125
7,15.889583957132093
8,12.512240939217995
9,8.454651939585231
10,14.568387612970719
2,4, 1, 4, 0, 8, 0.00,60.00,Wednesday
6,0.3124999999999999
7,23.404944863900277
8,20.686680369639217
9,9.653733927133804
10,23.304230625936279
2,4, 1, 4, 0, 9, 0.00,60.00,Wednesday
6,4.3999999999999999
7,31.081410936907269
8,30.056955828009565
9,11.307772258014186
10,32.81140185739257
2,4, 1, 4, 0,10, 0.00,60.00,Wednesday
6,8.1375
7,35.84307110417573
8,37.19826120098588
9,13.059014475763862
10,39.26572040452618
2,4, 1, 4, 0,11, 0.00,60.00,Wednesday
6,10.55
7,37.91861934533779
8,41.896365584438019
9,14.48979054744662
10,42.81333044257634
2,4, 1, 4, 0,12, 0.00,60.00,Wednesday
6,12.2375
7,38.01076132075215
8,43.22749716196028
9,15.485685042296474
10,43.26517409219889
2,4, 1, 4, 0,13, 0.00,60.00,Wednesday
6,13.3
7,37.11482862598654
8,41.457213069204417
9,15.581942385301702
10,41.03619924889049
2,4, 1, 4, 0,14, 0.00,60.00,Wednesday
6,14.1
7,31.925292235117199
8,36.453164786756307
9,14.800794375240156
10,35.12792005932345
2,4, 1, 4, 0,15, 0.00,60.00,Wednesday
6,13.649999999999999
7,25.83932675659355
8,32.59279221538458
9,13.876622684344462
10,30.16017012328935
2,4, 1, 4, 0,16, 0.00,60.00,Wednesday
6,12.7625
7,21.083111267755343
8,27.26573897314554
9,12.947772866828548
10,24.51209352608329
2,4, 1, 4, 0,17, 0.00,60.00,Wednesday
6,11.187499999999999
7,14.880837747962115
8,17.854177996387198
9,11.866367512149992
10,16.606987420814656
2,4, 1, 4, 0,18, 0.00,60.00,Wednesday
6,8.4
7,10.157634007374126
8,10.398738577040206
9,10.585842430749017
10,9.94444505052171
2,4, 1, 4, 0,19, 0.00,60.00,Wednesday
6,5.0125
7,7.528246620425815
8,6.488428490072209
9,9.583489631836823
10,6.1185423119029889
2,4, 1, 4, 0,20, 0.00,60.00,Wednesday
6,2.6375
7,5.384526346066082
8,3.9832820249546936
9,9.189463073889172
10,3.625898024875899
2,4, 1, 4, 0,21, 0.00,60.00,Wednesday
6,1.5624999999999998
7,3.9919094855647065
8,2.514193168514513
9,8.983884629595295
10,2.1649795730127154
2,4, 1, 4, 0,22, 0.00,60.00,Wednesday
6,1.3624999999999999
7,2.785486657620059
8,1.7292951039945546
9,8.975663383282388
10,1.3887309624879616
2,4, 1, 4, 0,23, 0.00,60.00,Wednesday
6,0.7124999999999999
7,2.3567738118609684
8,1.1956724887686892
9,8.849436603346602
10,0.8730145683299961
2,4, 1, 4, 0,24, 0.00,60.00,Wednesday
6,-0.1375
7,1.7176709793860386
8,0.39027670682917006
9,8.684773997578122
10,0.08555022387548948
2,5, 1, 5, 0, 1, 0.00,60.00,Thursday
6,-0.7125
7,1.0798776182533865
8,-0.4951037822418033
9,8.505811585875279
10,-0.7925820281816689
2,5, 1, 5, 0, 2, 0.00,60.00,Thursday
6,-1.525
7,0.6836157018947494
8,-1.1246293372735388
9,8.276639251278527
10,-1.4072008940142398
2,5, 1, 5, 0, 3, 0.00,60.00,Thursday
6,-2.0875
7,0.26069129088933337
8,-1.6637729506542725
9,8.066906282483658
10,-1.9291035414644815
2,5, 1, 5, 0, 4, 0.00,60.00,Thursday
6,-2.5749999999999999
7,-0.2130776130612424
8,-2.1954729387218299
9,7.885055650858077
10,-2.4482141730094968
2,5, 1, 5, 0, 5, 0.00,60.00,Thursday
6,-2.8625
7,-0.5496892613957987
8,-2.6910170409125078
9,7.6564978785030919
10,-2.9323563699888046
2,5, 1, 5, 0, 6, 0.00,60.00,Thursday
6,-3.2125
7,3.664684601772878
8,1.9275466967916007
9,7.7790347405645
10,1.9208114314074616
2,5, 1, 5, 0, 7, 0.00,60.00,Thursday
6,-2.9
7,13.774229288260703
8,11.41443507628858
9,8.550232167320317
10,12.720995645522429
2,5, 1, 5, 0, 8, 0.00,60.00,Thursday
6,0.2124999999999999
7,21.06475715917683
8,19.47066807660864
9,9.739400816511069
10,21.08622473962036
2,5, 1, 5, 0, 9, 0.00,60.00,Thursday
6,4.5249999999999999
7,28.426950143668195
8,28.40837588559784
9,11.302616775587089
10,30.00457115923912
2,5, 1, 5, 0,10, 0.00,60.00,Thursday
6,7.975
7,34.18001080211907
8,36.029073603196668
9,12.820767828928246
10,37.33504512844478
2,5, 1, 5, 0,11, 0.00,60.00,Thursday
6,10.6625
7,33.957759703013568
8,36.22992177809603
9,13.70251441522669
10,36.64314454226948
2,5, 1, 5, 0,12, 0.00,60.00,Thursday
6,12.1
7,25.908611024690729
8,27.10202569419781
9,12.9278367453002
10,27.04166218278975
2,5, 1, 5, 0,13, 0.00,60.00,Thursday
6,11.962499999999999
7,21.36764727281367
8,22.075780075722166
9,12.04447100184683
10,21.94081452189224
2,5, 1, 5, 0,14, 0.00,60.00,Thursday
6,11.0125
7,20.55182718193862
8,21.20515226817528
9,11.640608002309186
10,21.03738984837141
2,5, 1, 5, 0,15, 0.00,60.00,Thursday
6,9.2875
7,18.3937576085101
8,18.62754634815215
9,11.27435490098299
10,18.451310019230946
2,5, 1, 5, 0,16, 0.00,60.00,Thursday
6,8.375
7,12.833724015808813
8,13.515940138244338
9,10.445403502336577
10,13.33408662019049
2,5, 1, 5, 0,17, 0.00,60.00,Thursday
6,5.55
7,8.779598898409163
8,8.393411115516165
9,9.501247494268969
10,8.183062430238494
2,5, 1, 5, 0,18, 0.00,60.00,Thursday
6,3.0875
7,6.04888054696233
8,4.534618514278568
9,8.60683634585882
10,4.299220731889993
2,5, 1, 5, 0,19, 0.00,60.00,Thursday
6,2.7249999999999998
7,5.017355882226058
8,3.1353066473631525
9,8.239702161914956
10,2.8881199239934758
2,5, 1, 5, 0,20, 0.00,60.00,Thursday
6,2.9875
7,3.810799017249207
8,2.6829832606105317
9,8.425973729276734
10,2.426442379462257
2,5, 1, 5, 0,21, 0.00,60.00,Thursday
6,3.0375
7,3.2593504499042789
8,2.3444232258963968
9,8.439473321558225
10,2.0819767459508586
2,5, 1, 5, 0,22, 0.00,60.00,Thursday
6,2.9375000000000006
7,3.0662100569045966
8,2.121065662595091
9,8.370268024930184
10,1.8630051255787335
2,5, 1, 5, 0,23, 0.00,60.00,Thursday
6,2.9625
7,2.9796152838536
8,1.9648266773871868
9,8.289307327890878
10,1.7120098528315402
2,5, 1, 5, 0,24, 0.00,60.00,Thursday
6,2.8125
7,3.0864754060302088
8,2.021467235751349
9,8.19382517128362
10,1.7819881599652408
2,6, 1, 6, 0, 1, 0.00,60.00,Friday
6,2.2
7,2.778779912883647
8,1.69048554957841
9,8.071523156080782
10,1.4617129076252209
2,6, 1, 6, 0, 2, 0.00,60.00,Friday
6,0.775
7,2.3194909627045128
8,0.7946032700097706
9,7.78142420446458
10,0.5755867464996795
2,6, 1, 6, 0, 3, 0.00,60.00,Friday
6,0.28750000000000006
7,1.2110252233489494
8,-0.33099270132854277
9,7.60297073105224
10,-0.5510451004511702
2,6, 1, 6, 0, 4, 0.00,60.00,Friday
6,0.7125
7,1.0387842769058025
8,-0.5732588917301641
9,7.453087283740484
10,-0.790100642528221
2,6, 1, 6, 0, 5, 0.00,60.00,Friday
6,0.9
7,1.3656919576860825
8,-0.2477535520438255
9,7.316667300955858
10,-0.4501595254107899
2,6, 1, 6, 0, 6, 0.00,60.00,Friday
6,0.7125
7,6.063463166555093
8,5.062815375889622
9,7.493508748967432
10,4.9834207407601289
2,6, 1, 6, 0, 7, 0.00,60.00,Friday
6,1.1625
7,13.537252083218498
8,12.104921355617274
9,8.205386979470767
10,12.512694118274908
2,6, 1, 6, 0, 8, 0.00,60.00,Friday
6,2.125
7,17.684270660084058
8,16.559863013552197
9,8.996116721031047
10,16.954188301854168
2,6, 1, 6, 0, 9, 0.00,60.00,Friday
6,3.1874999999999997
7,22.253675385013268
8,21.650203213987738
9,10.032625376963593
10,22.030855386554703
2,6, 1, 6, 0,10, 0.00,60.00,Friday
6,4.7875
7,26.988292196079799
8,27.108788608359725
9,10.9493381775854
10,27.671395644900988
2,6, 1, 6, 0,11, 0.00,60.00,Friday
6,6.75
7,30.739844894248607
8,32.05440916615183
9,12.312428213386595
10,32.45725518139444
2,6, 1, 6, 0,12, 0.00,60.00,Friday
6,8.5625
7,31.716939390464249
8,34.26040577540365
9,13.453957302746062
10,34.21934799332819
2,6, 1, 6, 0,13, 0.00,60.00,Friday
6,10.200000000000001
7,31.59039261876329
8,33.62522906869005
9,13.750893865503093
10,33.21971401191267
2,6, 1, 6, 0,14, 0.00,60.00,Friday
6,11.2375
7,26.415146200140723
8,27.191287062111443
9,13.006398889653513
10,26.86904847585854
2,6, 1, 6, 0,15, 0.00,60.00,Friday
6,11.562500000000002
7,20.042776150347949
8,20.960272069930157
9,11.83232606762581
10,20.785450196879745
2,6, 1, 6, 0,16, 0.00,60.00,Friday
6,9.1625
7,13.61167295609308
8,14.91938195110102
9,10.611112060248529
10,14.792001743104088
2,6, 1, 6, 0,17, 0.00,60.00,Friday
6,5.762500000000001
7,8.785680014703594
8,8.473337176159543
9,8.96560773573112
10,8.325804692167012
2,6, 1, 6, 0,18, 0.00,60.00,Friday
6,2.6625
7,5.9820879425738628
8,4.302955997257374
9,8.009364160641303
10,4.145457051637345
2,6, 1, 6, 0,19, 0.00,60.00,Friday
6,1.5
7,4.324191336236028
8,2.097793239783191
9,7.709618593285414
10,1.9354289260043145
2,6, 1, 6, 0,20, 0.00,60.00,Friday
6,1.5
7,3.9704453716080567
8,1.538757068299749
9,7.494197703565528
10,1.3774890808308005
2,6, 1, 6, 0,21, 0.00,60.00,Friday
6,0.5625
7,3.083788134973897
8,0.875277344958141
9,7.42543021493183
10,0.7165100896864871
2,6, 1, 6, 0,22, 0.00,60.00,Friday
6,0.0
7,2.2215272494168518
8,0.0051979340893874089
9,7.337254356990098
10,-0.15252912795715263
2,6, 1, 6, 0,23, 0.00,60.00,Friday
6,0.0625
7,1.7170800634174933
8,-0.2967476739907237
9,7.304770344602845
10,-0.45261058963624337
2,6, 1, 6, 0,24, 0.00,60.00,Friday
6,0.0375
7,1.457152849744327
8,-0.4594727508924204
9,7.2561214740115649
10,-0.6135681423573394
2,7, 1, 7, 0, 1, 0.00,60.00,Saturday
6,0.0
7,1.327423295180099
8,-0.6847024039186911
9,7.131552665784752
10,-0.8350478468280457
2,7, 1, 7, 0, 2, 0.00,60.00,Saturday
6,0.125
7,0.8573502458710258
8,-0.8958662129187555
9,7.087770050861194
10,-1.0442180690629495
2,7, 1, 7, 0, 3, 0.00,60.00,Saturday
6,0.2625
7,0.8480608556508165
8,-0.800422563312188
9,7.006095182156265
10,-0.945006430500325
2,7, 1, 7, 0, 4, 0.00,60.00,Saturday
6,0.1125
7,0.625700728320173
8,-0.9653020602243507
9,6.903461300998665
10,-1.1064940183015156
2,7, 1, 7, 0, 5, 0.00,60.00,Saturday
6,-0.0625
7,0.2544853265152855
8,-1.4674194043350695
9,6.729824245002474
10,-1.608453187680563
2,7, 1, 7, 0, 6, 0.00,60.00,Saturday
6,0.14999999999999998
7,3.4162259273520885
8,2.130763564156724
9,6.790741492357607
10,2.0755268754149478
2,7, 1, 7, 0, 7, 0.00,60.00,Saturday
6,0.6749999999999999
7,7.167902697418912
8,6.48062634105246
9,7.204833795539753
10,6.373527482595209
2,7, 1, 7, 0, 8, 0.00,60.00,Saturday
6,1.275
7,13.120180821847115
8,12.60523388832863
9,7.825387798848414
10,12.65935942044471
2,7, 1, 7, 0, 9, 0.00,60.00,Saturday
6,2.375
7,24.81234944372699
8,25.231165067730143
9,9.35003097734187
10,26.275516893822574
2,7, 1, 7, 0,10, 0.00,60.00,Saturday
6,4.5874999999999999
7,30.627828337676548
8,32.106174794558778
9,10.978621258531139
10,33.082127605431647
2,7, 1, 7, 0,11, 0.00,60.00,Saturday
6,6.9125
7,32.229189746565399
8,34.65910294775746
9,12.107078499356636
10,35.129513979524968
2,7, 1, 7, 0,12, 0.00,60.00,Saturday
6,9.075000000000001
7,27.549924640016714
8,29.157896613299849
9,11.859516074855849
10,29.148402659706073
2,7, 1, 7, 0,13, 0.00,60.00,Saturday
6,10.025
7,20.165384784002215
8,20.85689967720952
9,10.781902333378673
10,20.78166623183582
2,7, 1, 7, 0,14, 0.00,60.00,Saturday
6,8.912499999999998
7,15.53254709562116
8,16.18862378412774
9,9.927125330120239
10,16.106757784161528
2,7, 1, 7, 0,15, 0.00,60.00,Saturday
6,6.887499999999999
7,10.167022288626768
8,10.243465908610988
9,9.020108823738653
10,10.148818660965823
2,7, 1, 7, 0,16, 0.00,60.00,Saturday
6,5.0375
7,7.4934334644230839
8,7.235920506358678
9,8.09437487658601
10,7.127504370838383
2,7, 1, 7, 0,17, 0.00,60.00,Saturday
6,3.5250000000000005
7,6.3854604809986299
8,5.424889709614277
9,7.26438118424236
10,5.30923628407995
2,7, 1, 7, 0,18, 0.00,60.00,Saturday
6,2.5625
7,5.0099763437714259
8,3.191695267213143
9,6.781419340419652
10,3.0706668137350028
2,7, 1, 7, 0,19, 0.00,60.00,Saturday
6,2.3625
7,4.028873952585933
8,2.0953681800577597
9,6.715941437358079
10,1.965639867692048
2,7, 1, 7, 0,20, 0.00,60.00,Saturday
6,2.3374999999999996
7,3.9213192668075216
8,1.9835685388048972
9,6.651181324628226
10,1.8532772461745082
2,7, 1, 7, 0,21, 0.00,60.00,Saturday
6,2.1125
7,3.3319900894141947
8,1.6651615361919817
9,6.671692229910675
10,1.5336076339180814
2,7, 1, 7, 0,22, 0.00,60.00,Saturday
6,1.8125000000000003
7,2.3478209548632815
8,0.9980444488485988
9,6.726858855499595
10,0.8620158918476646
2,7, 1, 7, 0,23, 0.00,60.00,Saturday
6,1.7
7,1.5821790932897797
8,0.3574352787789572
9,6.681322021151903
10,0.21674502080648895
2,7, 1, 7, 0,24, 0.00,60.00,Saturday
6,2.075
7,1.9337685790391753
8,0.4162383182528687
9,6.566878674512823
10,0.2773914288481155
2,8, 1, 8, 0, 1, 0.00,60.00,Sunday
6,2.425
7,2.7417518003986185
8,1.0158483319669738
9,6.450203957763936
10,0.8849370733634395
2,8, 1, 8, 0, 2, 0.00,60.00,Sunday
6,2.5
7,2.94220788564422
8,1.3158603695116676
9,6.402793344449455
10,1.1920166699818105
2,8, 1, 8, 0, 3, 0.00,60.00,Sunday
6,2.4375
7,2.7150898835857757
8,1.1022344902476185
9,6.334383701320727
10,0.9801904255962541
2,8, 1, 8, 0, 4, 0.00,60.00,Sunday
6,2.15
7,2.4069966116244294
8,0.7402695515864408
9,6.21220194396109
10,0.6196140512121542
2,8, 1, 8, 0, 5, 0.00,60.00,Sunday
6,2.0
7,1.8105556870920144
8,0.47669497067005736
9,6.145896445572302
10,0.3593009037688889
2,8, 1, 8, 0, 6, 0.00,60.00,Sunday
6,1.8749999999999998
7,4.627549985258581
8,3.8493017884482385
9,6.309542918879032
10,3.787273013472033
2,8, 1, 8, 0, 7, 0.00,60.00,Sunday
6,2.3000000000000004
7,7.04895617764936
8,6.597066291230943
9,6.545116168409101
10,6.502126775978317
2,8, 1, 8, 0, 8, 0.00,60.00,Sunday
6,2.5375
7,10.656606362583056
8,10.282043808221822
9,6.793302725022946
10,10.303143316895124
2,8, 1, 8, 0, 9, 0.00,60.00,Sunday
6,3.0625000000000006
7,21.415524966461363
8,20.95574806266442
9,8.215555479551682
10,21.690088562587677
2,8, 1, 8, 0,10, 0.00,60.00,Sunday
6,4.8999999999999999
7,27.758941156142009
8,28.34840424062652
9,9.878109821547364
10,29.031677317515127
2,8, 1, 8, 0,11, 0.00,60.00,Sunday
6,6.9875
7,30.30812500613321
8,32.01008902221188
9,10.987085996711223
10,32.31607556673623
2,8, 1, 8, 0,12, 0.00,60.00,Sunday
6,9.325
7,28.749159618002616
8,30.466163453918676
9,11.308841291726435
10,30.439871032819668
2,8, 1, 8, 0,13, 0.00,60.00,Sunday
6,9.862499999999999
7,20.68054773322624
8,21.491008711424276
9,10.411941515828933
10,21.410553039007288
2,8, 1, 8, 0,14, 0.00,60.00,Sunday
6,7.7875
7,15.200380581610013
8,15.606975031590175
9,9.369344737661326
10,15.526796455928786
2,8, 1, 8, 0,15, 0.00,60.00,Sunday
6,6.012499999999999
7,9.86006903297563
8,10.758531387061462
9,8.135789499660156
10,10.683686768799412
2,8, 1, 8, 0,16, 0.00,60.00,Sunday
6,4.6625
7,6.958137975560142
8,6.729862963240482
9,7.14462726036461
10,6.632740288855079
2,8, 1, 8, 0,17, 0.00,60.00,Sunday
6,4.1
7,5.97436112679056
8,4.9356627416986289
9,6.759946147443995
10,4.825277954339143
2,8, 1, 8, 0,18, 0.00,60.00,Sunday
6,1.5999999999999997
7,3.5818536222134007
8,2.524694974093519
9,6.5928873647635239
10,2.4070948324741154
2,8, 1, 8, 0,19, 0.00,60.00,Sunday
6,0.1
7,1.0266124529219488
8,-0.061277977096849057
9,6.431808663268032
10,-0.19397578521494955
2,8, 1, 8, 0,20, 0.00,60.00,Sunday
6,0.1
7,0.5167457044952826
8,-0.7700543156003463
9,6.240787756166222
10,-0.9065052474834994
2,8, 1, 8, 0,21, 0.00,60.00,Sunday
6,0.0375
7,0.9561250725240027
8,-0.7626454311091098
9,6.058703749379901
10,-0.8972493912411392
2,8, 1, 8, 0,22, 0.00,60.00,Sunday
6,-0.0625
7,1.615536905869093
8,-0.5380966424817408
9,5.835610071761893
10,-0.6666952654841994
2,8, 1, 8, 0,23, 0.00,60.00,Sunday
6,-0.1
7,1.396775049840665
8,-0.8068899882797661
9,5.75693771819013
10,-0.9362219627809729
2,8, 1, 8, 0,24, 0.00,60.00,Sunday
6,-0.16250000000000004
7,1.328370585161397
8,-0.9785029057031585
9,5.65704277490867
10,-1.1066277292680793
2,9, 1, 9, 0, 1, 0.00,60.00,Monday
6,-0.1375
7,0.8283226744180853
8,-1.1487431307075436
9,5.645283195185199
10,-1.27530339337871
2,9, 1, 9, 0, 2, 0.00,60.00,Monday
6,-0.1
7,0.30194481683843807
8,-1.438949102391244
9,5.629916483639399
10,-1.5654148540989692
2,9, 1, 9, 0, 3, 0.00,60.00,Monday
6,-0.0375
7,0.044007414479424088
8,-1.5676745679786053
9,5.550847635306576
10,-1.6918400843571764
2,9, 1, 9, 0, 4, 0.00,60.00,Monday
6,0.1875
7,0.02261554356236561
8,-1.4746996274088489
9,5.475034455632116
10,-1.596119185767498
2,9, 1, 9, 0, 5, 0.00,60.00,Monday
6,0.175
7,0.02990234598190133
8,-1.4482472567053036
9,5.37502629960408
10,-1.5660624903009984
2,9, 1, 9, 0, 6, 0.00,60.00,Monday
6,0.1
7,3.737782618750308
8,2.8205663915268239
9,5.497943941965101
10,2.7161892452710134
2,9, 1, 9, 0, 7, 0.00,60.00,Monday
6,0.35
7,10.058950873927863
8,9.480210434362992
9,6.101784036272274
10,9.485036583022639
2,9, 1, 9, 0, 8, 0.00,60.00,Monday
6,1.125
7,16.66397415723086
8,16.298214902856228
9,7.0652518154259129
10,16.73761403547259
2,9, 1, 9, 0, 9, 0.00,60.00,Monday
6,2.8125
7,16.21444874211017
8,15.915333619505539
9,7.6180407891384
10,16.020492296138195
2,9, 1, 9, 0,10, 0.00,60.00,Monday
6,4.1
7,18.31927085124225
8,18.260329006675368
9,7.931391331444484
10,18.288012378873455
2,9, 1, 9, 0,11, 0.00,60.00,Monday
6,5.4
7,25.63682688271008
8,26.66914097652374
9,9.188736209983059
10,26.800398511062647
2,9, 1, 9, 0,12, 0.00,60.00,Monday
6,7.25
7,27.751636298607957
8,29.775664230576355
9,10.187536944674886
10,29.720138158387195
2,9, 1, 9, 0,13, 0.00,60.00,Monday
6,8.75
7,22.144019148000245
8,23.580419877221915
9,9.77453409886254
10,23.419184289759597
2,9, 1, 9, 0,14, 0.00,60.00,Monday
6,7.7
7,23.783556656618314
8,25.252654927220278
9,9.754050563535215
10,24.412595499308659
2,9, 1, 9, 0,15, 0.00,60.00,Monday
6,7.3625
7,24.500683189201398
8,25.578933198153707
9,9.970977316597093
10,23.8716860378688
2,9, 1, 9, 0,16, 0.00,60.00,Monday
6,8.2
7,13.50521836240153
8,15.056242963592914
9,8.960638230930823
10,14.510125009949851
2,9, 1, 9, 0,17, 0.00,60.00,Monday
6,6.0
7,7.736800768812312
8,8.110670811728545
9,7.510274586838085
10,7.940500263913693
2,9, 1, 9, 0,18, 0.00,60.00,Monday
6,2.4375
7,5.015216388100783
8,3.752352609584384
9,6.285040408585827
10,3.610671900509392
2,9, 1, 9, 0,19, 0.00,60.00,Monday
6,0.38749999999999998
7,3.3145518249507468
8,1.1228053770568696
9,5.682251906724318
10,0.9854409107669693
2,9, 1, 9, 0,20, 0.00,60.00,Monday
6,-0.28750000000000006
7,2.4591048080984008
8,-0.031004495038657953
9,5.410107247947366
10,-0.16231879738124717
2,9, 1, 9, 0,21, 0.00,60.00,Monday
6,-0.5874999999999999
7,1.968421119828236
8,-0.5893645551020336
9,5.316536323211383
10,-0.7147355693736103
2,9, 1, 9, 0,22, 0.00,60.00,Monday
6,-0.7
7,1.1219801972658022
8,-1.02011892600541
9,5.40808919675157
10,-1.1409692485664354
2,9, 1, 9, 0,23, 0.00,60.00,Monday
6,-0.7625
7,0.8656697933059111
8,-1.3455368111129505
9,5.389037196531335
10,-1.462576317751105
2,9, 1, 9, 0,24, 0.00,60.00,Monday
6,-0.8
7,0.5309068829497695
8,-1.5308026162237297
9,5.355054421388108
10,-1.642688200839556
2,10, 1,10, 0, 1, 0.00,60.00,Tuesday
6,-0.8
7,-0.1732433808571861
8,-1.7850475442252488
9,5.409761156858885
10,-1.8942562889956929
2,10, 1,10, 0, 2, 0.00,60.00,Tuesday
6,-0.8
7,-0.4028528581263665
8,-1.9197275154904304
9,5.3597834170293618
10,-2.025501902775562
2,10, 1,10, 0, 3, 0.00,60.00,Tuesday
6,-0.925
7,-0.5146521887734822
8,-2.0680333798665435
9,5.259712715939404
10,-2.170129423946445
2,10, 1,10, 0, 4, 0.00,60.00,Tuesday
6,-1.0
7,-0.6337967849193961
8,-2.2341738632922438
9,5.142568451326982
10,-2.3328660268201428
2,10, 1,10, 0, 5, 0.00,60.00,Tuesday
6,-0.875
7,-0.6679250598371123
8,-2.279833933326931
9,5.030979270951556
10,-2.3753019362056095