Program Version,EnergyPlus, Version 8.7.0-78a111df4a, YMD=2023.09.05 18:16
1,5,Environment Title[],Latitude[deg],Longitude[deg],Time Zone[],Elevation[m]
2,6,Day of Simulation[],Month[],Day of Month[],DST Indicator[1=yes 0=no],Hour[],StartMinute[],EndMinute[],DayType
3,3,Cumulative Day of Simulation[],Month[],Day of Month[],DST Indicator[1=yes 0=no],DayType  ! When Daily Report Variables Requested
4,2,Cumulative Days of Simulation[],Month[]  ! When Monthly Report Variables Requested
5,1,Cumulative Days of Simulation[] ! When Run Period Report Variables Requested
6,1,Environment,Site Outdoor Air Drybulb Temperature [C] !Hourly
7,1,ATICO CEN,Zone Mean Air Temperature [C] !Hourly
8,1,ATICO E,Zone Mean Air Temperature [C] !Hourly
9,1,MODULO,Zone Mean Air Temperature [C] !Hourly
10,1,ATICO O,Zone Mean Air Temperature [C] !Hourly
11,1,ATICO CEN,Zone Air System Sensible Heating Energy [J] !Hourly
83,1,ATICO E,Zone Air System Sensible Heating Energy [J] !Hourly
115,1,MODULO,Zone Air System Sensible Heating Energy [J] !Hourly
147,1,ATICO O,Zone Air System Sensible Heating Energy [J] !Hourly
End of Data Dictionary
1,2022, -15.85, -71.09,  -5.00,4469.00
2,1, 1, 1, 0, 1, 0.00,60.00,Sunday
6,1.4124999999999999
7,3.60330167873757
8,0.9256727480934823
9,12.300050149289812
10,0.6333929300218746
11,0.0
83,0.0
115,1148676.6009045758
147,0.0
2,1, 1, 1, 0, 2, 0.00,60.00,Sunday
6,1.9
7,3.8536036065105314
8,1.5091901559436143
9,12.300000006859796
10,1.2356901667646408
11,0.0
83,0.0
115,1126065.06115705
147,0.0
2,1, 1, 1, 0, 3, 0.00,60.00,Sunday
6,1.7125
7,3.7774142543810886
8,1.3247793058476514
9,12.30000000000015
10,1.0600202877739789
11,0.0
83,0.0
115,1159715.6825148422
147,0.0
2,1, 1, 1, 0, 4, 0.00,60.00,Sunday
6,1.0375
7,3.2331264741161949
8,0.6256986850757533
9,12.3
10,0.36323388640161549
11,0.0
83,0.0
115,1209701.8677645783
147,0.0
2,1, 1, 1, 0, 5, 0.00,60.00,Sunday
6,0.7625
7,2.8967877741220344
8,0.12783475865434128
9,12.300000000000067
10,-0.12400039063554833
11,0.0
83,0.0
115,1276449.8121581525
147,0.0
2,1, 1, 1, 0, 6, 0.00,60.00,Sunday
6,0.55
7,8.387519445129822
8,5.816142410536797
9,12.29983110752426
10,6.273469304708129
11,0.0
83,0.0
115,1144898.3316600898
147,0.0
2,1, 1, 1, 0, 7, 0.00,60.00,Sunday
6,2.4625000000000005
7,19.6013201250109
8,16.224025945909149
9,12.299264949350384
10,18.07345844182668
11,0.0
83,0.0
115,658582.1834462315
147,0.0
2,1, 1, 1, 0, 8, 0.00,60.00,Sunday
6,5.575
7,27.516285937678405
8,25.24944393409827
9,12.299035860150334
10,27.800554892810309
11,0.0
83,0.0
115,241847.34877649253
147,0.0
2,1, 1, 1, 0, 9, 0.00,60.00,Sunday
6,8.2625
7,34.29567802062746
8,34.004542688896069
9,12.298693162478309
10,36.778871457793929
11,0.0
83,0.0
115,0.0
147,0.0
2,1, 1, 1, 0,10, 0.00,60.00,Sunday
6,10.200000000000001
7,37.40434929969723
8,39.6113294283827
9,12.297724407178702
10,41.51016715837087
11,0.0
83,0.0
115,0.0
147,0.0
2,1, 1, 1, 0,11, 0.00,60.00,Sunday
6,11.3
7,36.950504059900527
8,40.7480090456204
9,12.301140016538005
10,41.46801470057795
11,0.0
83,0.0
115,0.0
147,0.0
2,1, 1, 1, 0,12, 0.00,60.00,Sunday
6,12.1625
7,34.51313254104244
8,38.886146607243848
9,12.304335953198427
10,38.896037338281889
11,0.0
83,0.0
115,0.0
147,0.0
2,1, 1, 1, 0,13, 0.00,60.00,Sunday
6,12.749999999999999
7,27.67250699721208
8,30.368849391690259
9,12.301484803202655
10,30.185334097556557
11,0.0
83,0.0
115,0.0
147,0.0
2,1, 1, 1, 0,14, 0.00,60.00,Sunday
6,13.087499999999999
7,18.312554369780086
8,19.620736018083016
9,12.301462959266459
10,19.41675309887777
11,0.0
83,0.0
115,45181.814855926685
147,0.0
2,1, 1, 1, 0,15, 0.00,60.00,Sunday
6,9.1375
7,13.660201988686382
8,14.393154535020227
9,12.30024771425378
10,14.192445510526812
11,0.0
83,0.0
115,395060.0417972531
147,0.0
2,1, 1, 1, 0,16, 0.00,60.00,Sunday
6,5.887500000000001
7,10.685207076730763
8,9.58492930299218
9,12.299986436237138
10,9.359122569549669
11,0.0
83,0.0
115,787887.7893891231
147,0.0
2,1, 1, 1, 0,17, 0.00,60.00,Sunday
6,4.025
7,8.456445451510316
8,7.687879588981996
9,12.30021574961017
10,7.431371169698593
11,0.0
83,0.0
115,712851.4508507114
147,0.0
2,1, 1, 1, 0,18, 0.00,60.00,Sunday
6,2.3875
7,5.433652276126569
8,4.315300400870985
9,12.300331807658253
10,4.019390877391387
11,0.0
83,0.0
115,849421.5640224037
147,0.0
2,1, 1, 1, 0,19, 0.00,60.00,Sunday
6,2.4000000000000005
7,4.364415792450422
8,2.6522621450698544
9,12.300197669272598
10,2.338919985578671
11,0.0
83,0.0
115,959765.1832434093
147,0.0
2,1, 1, 1, 0,20, 0.00,60.00,Sunday
6,2.575
7,4.511756563239201
8,2.607292314087502
9,12.300040671636442
10,2.2946393538823139
11,0.0
83,0.0
115,990526.5526243866
147,0.0
2,1, 1, 1, 0,21, 0.00,60.00,Sunday
6,2.375
7,4.20926472599764
8,2.267687461127327
9,12.3000006364915
10,1.951709105052107
11,0.0
83,0.0
115,991267.3608441696
147,0.0
2,1, 1, 1, 0,22, 0.00,60.00,Sunday
6,1.8625000000000003
7,3.743644643653831
8,1.6860710782595499
9,12.300000000000243
10,1.3650664244007734
11,0.0
83,0.0
115,1009722.9007287127
147,0.0
2,1, 1, 1, 0,23, 0.00,60.00,Sunday
6,1.4125
7,3.4196444672579995
8,1.0960127736413763
9,12.300000000000193
10,0.7752741507027195
11,0.0
83,0.0
115,1053700.18467271
147,0.0
2,1, 1, 1, 0,24, 0.00,60.00,Sunday
6,0.8625
7,3.187760574966007
8,0.7338759828686318
9,12.300000000000003
10,0.42440010951794679
11,0.0
83,0.0
115,1097089.4869647839
147,0.0
2,2, 1, 2, 0, 1, 0.00,60.00,Monday
6,0.35
7,2.9522799665866858
8,0.3394104299572936
9,12.299999999999985
10,0.042835901316604588
11,0.0
83,0.0
115,1151721.3956966235
147,0.0
2,2, 1, 2, 0, 2, 0.00,60.00,Monday
6,0.1375
7,2.922327521583597
8,0.09681819368207477
9,12.300000000000113
10,-0.18614475654804317
11,0.0
83,0.0
115,1212904.5637371678
147,0.0
2,2, 1, 2, 0, 3, 0.00,60.00,Monday
6,0.0375
7,2.6890245638102856
8,-0.1307685139653652
9,12.299999999999985
10,-0.4028790602341853
11,0.0
83,0.0
115,1241862.9469718748
147,0.0
2,2, 1, 2, 0, 4, 0.00,60.00,Monday
6,-0.125
7,2.4854470592412034
8,-0.46349695731896958
9,12.300000000000104
10,-0.7269159059956509
11,0.0
83,0.0
115,1294942.102001209
147,0.0
2,2, 1, 2, 0, 5, 0.00,60.00,Monday
6,-0.7625000000000001
7,2.1784248571049487
8,-0.9064692230738307
9,12.30000000000004
10,-1.1583356518061137
11,0.0
83,0.0
115,1357541.2132149176
147,0.0
2,2, 1, 2, 0, 6, 0.00,60.00,Monday
6,-0.975
7,7.7880480305047
8,5.145920882739508
9,12.299817610020334
10,5.63019860561361
11,0.0
83,0.0
115,1195797.7219884555
147,0.0
2,2, 1, 2, 0, 7, 0.00,60.00,Monday
6,0.16250000000000004
7,17.971066475516964
8,14.282420872000789
9,12.299154791037655
10,16.065286940126457
11,0.0
83,0.0
115,785572.387149782
147,0.0
2,2, 1, 2, 0, 8, 0.00,60.00,Monday
6,2.9250000000000004
7,24.613261538456578
8,21.06367841313999
9,12.298645270051715
10,23.519258834354269
11,0.0
83,0.0
115,426843.03381569057
147,0.0
2,2, 1, 2, 0, 9, 0.00,60.00,Monday
6,6.324999999999999
7,31.779075939003897
8,30.210873922848557
9,12.298608860663226
10,32.930818389670978
11,0.0
83,0.0
115,39419.15310114109
147,0.0
2,2, 1, 2, 0,10, 0.00,60.00,Monday
6,9.0375
7,35.77212108450028
8,36.906818611557017
9,12.29763311441841
10,38.93815291151178
11,0.0
83,0.0
115,0.0
147,0.0
2,2, 1, 2, 0,11, 0.00,60.00,Monday
6,10.5875
7,36.62048041161382
8,40.2341673775141
9,12.299911301135709
10,40.99736944975177
11,0.0
83,0.0
115,0.0
147,0.0
2,2, 1, 2, 0,12, 0.00,60.00,Monday
6,12.000000000000002
7,36.09068121016233
8,41.29716458842222
9,12.301177798731797
10,41.3211871949793
11,0.0
83,0.0
115,0.0
147,0.0
2,2, 1, 2, 0,13, 0.00,60.00,Monday
6,13.599999999999998
7,34.607653940920148
8,39.04438757492366
9,12.302285845400827
10,38.61115454730469
11,0.0
83,0.0
115,0.0
147,0.0
2,2, 1, 2, 0,14, 0.00,60.00,Monday
6,14.575
7,25.762610581811744
8,27.95719296188359
9,12.302235573081159
10,27.502508749852927
11,0.0
83,0.0
115,0.0
147,0.0
2,2, 1, 2, 0,15, 0.00,60.00,Monday
6,12.8
7,19.832634041367848
8,22.627132090126144
9,12.30059262147436
10,22.007383857188139
11,0.0
83,0.0
115,20135.048318796544
147,0.0
2,2, 1, 2, 0,16, 0.00,60.00,Monday
6,10.099999999999998
7,15.108760802504632
8,16.991191483925353
9,12.299999905028408
10,16.633456024612288
11,0.0
83,0.0
115,247501.10070486114
147,0.0
2,2, 1, 2, 0,17, 0.00,60.00,Monday
6,8.1375
7,12.054634244343509
8,11.868030092043755
9,12.299996634601463
10,11.590720060459525
11,0.0
83,0.0
115,443908.26840537486
147,0.0
2,2, 1, 2, 0,18, 0.00,60.00,Monday
6,6.125000000000001
7,8.162891315381822
8,7.647964668276831
9,12.30052008394792
10,7.366613310687994
11,0.0
83,0.0
115,638222.3378810592
147,0.0
2,2, 1, 2, 0,19, 0.00,60.00,Monday
6,5.362500000000001
7,6.366349844826228
8,5.552471059447646
9,12.300223073606489
10,5.254194304869637
11,0.0
83,0.0
115,760055.5163233546
147,0.0
2,2, 1, 2, 0,20, 0.00,60.00,Monday
6,4.525
7,5.671158079251631
8,4.569410418239777
9,12.300000000004748
10,4.263511881147454
11,0.0
83,0.0
115,825061.0011783457
147,0.0
2,2, 1, 2, 0,21, 0.00,60.00,Monday
6,3.5
7,5.294519261471107
8,3.869605767118325
9,12.30000000000005
10,3.576024590126515
11,0.0
83,0.0
115,887776.9575816949
147,0.0
2,2, 1, 2, 0,22, 0.00,60.00,Monday
6,2.7625
7,4.621399535405571
8,2.942243898977731
9,12.300000000000026
10,2.6472193208234158
11,0.0
83,0.0
115,923581.3523276622
147,0.0
2,2, 1, 2, 0,23, 0.00,60.00,Monday
6,2.0
7,3.9458771986435989
8,2.0488504591888518
9,12.300000000000069
10,1.7552576663291862
11,0.0
83,0.0
115,964271.702076805
147,0.0
2,2, 1, 2, 0,24, 0.00,60.00,Monday
6,1.3249999999999998
7,3.67182257470785
8,1.4036937454094825
9,12.300000000000058
10,1.1217259072755983
11,0.0
83,0.0
115,1036377.7507193395
147,0.0
2,3, 1, 3, 0, 1, 0.00,60.00,Tuesday
6,0.9125000000000001
7,3.426903245221417
8,0.9232737822839514
9,12.300000000000154
10,0.6549989956065208
11,0.0
83,0.0
115,1090092.2885759958
147,0.0
2,3, 1, 3, 0, 2, 0.00,60.00,Tuesday
6,0.05000000000000002
7,2.8065503527318209
8,0.1799941241151909
9,12.300000000000065
10,-0.08017626495881296
11,0.0
83,0.0
115,1131206.5173480302
147,0.0
2,3, 1, 3, 0, 3, 0.00,60.00,Tuesday
6,-0.4625
7,2.379947124124343
8,-0.48426297014169997
9,12.299999999999951
10,-0.7319235659227286
11,0.0
83,0.0
115,1193833.8312576097
147,0.0
2,3, 1, 3, 0, 4, 0.00,60.00,Tuesday
6,-0.8750000000000001
7,2.0422634689739227
8,-0.9720225375969263
9,12.300000000000069
10,-1.208468722763738
11,0.0
83,0.0
115,1246801.511107347
147,0.0
2,3, 1, 3, 0, 5, 0.00,60.00,Tuesday
6,-1.6625
7,1.6351062031401683
8,-1.6227145162010426
9,12.300000000000108
10,-1.8479115383863545
11,0.0
83,0.0
115,1330681.6537308426
147,0.0
2,3, 1, 3, 0, 6, 0.00,60.00,Tuesday
6,-2.375
7,7.030186551657324
8,4.126411043550913
9,12.299831866826592
10,4.688606533205918
11,0.0
83,0.0
115,1217373.9629649269
147,0.0
2,3, 1, 3, 0, 7, 0.00,60.00,Tuesday
6,-2.1625
7,17.405265232858655
8,13.805594677790968
9,12.299339592871732
10,15.721880417182455
11,0.0
83,0.0
115,779640.5258108411
147,0.0
2,3, 1, 3, 0, 8, 0.00,60.00,Tuesday
6,-0.525
7,24.731510005651768
8,22.033563548264497
9,12.298807636083407
10,24.579475077528629
11,0.0
83,0.0
115,404862.47396182166
147,0.0
2,3, 1, 3, 0, 9, 0.00,60.00,Tuesday
6,3.55
7,32.38127711175953
8,31.96030883493765
9,12.299502003975972
10,34.564665712565489
11,0.0
83,0.0
115,22048.28434775653
147,0.0
2,3, 1, 3, 0,10, 0.00,60.00,Tuesday
6,7.812499999999999
7,36.66340221451568
8,38.7484338463323
9,12.297184809843552
10,40.87685623896961
11,0.0
83,0.0
115,0.0
147,0.0
2,3, 1, 3, 0,11, 0.00,60.00,Tuesday
6,10.6375
7,35.44036721572738
8,39.04884784993849
9,12.303886686671263
10,40.02129357274499
11,0.0
83,0.0
115,0.0
147,0.0
2,3, 1, 3, 0,12, 0.00,60.00,Tuesday
6,12.3125
7,33.5302210079693
8,37.16075247175089
9,12.30131753211738
10,37.22094046832455
11,0.0
83,0.0
115,0.0
147,0.0
2,3, 1, 3, 0,13, 0.00,60.00,Tuesday
6,13.05
7,31.786963832022228
8,34.78599717233188
9,12.301557138327155
10,34.476470605105948
11,0.0
83,0.0
115,0.0
147,0.0
2,3, 1, 3, 0,14, 0.00,60.00,Tuesday
6,13.0125
7,32.138583141592338
8,35.73965558371287
9,12.299150397596489
10,34.40049916621487
11,0.0
83,0.0
115,0.0
147,0.0
2,3, 1, 3, 0,15, 0.00,60.00,Tuesday
6,12.462499999999999
7,28.955572732629688
8,34.12566173129297
9,12.301114313467899
10,31.385847043753026
11,0.0
83,0.0
115,0.0
147,0.0
2,3, 1, 3, 0,16, 0.00,60.00,Tuesday
6,12.2
7,21.882420391753823
8,28.200595766962829
9,12.299999996308978
10,25.034972778100014
11,0.0
83,0.0
115,0.0
147,0.0
2,3, 1, 3, 0,17, 0.00,60.00,Tuesday
6,10.95
7,15.102867076090732
8,18.082149486051088
9,12.299999449483352
10,16.453265746440147
11,0.0
83,0.0
115,208288.00576780717
147,0.0
2,3, 1, 3, 0,18, 0.00,60.00,Tuesday
6,8.450000000000001
7,11.352507937473014
8,10.435241538331758
9,12.299999105236239
10,9.90963200431567
11,0.0
83,0.0
115,657092.3227875732
147,0.0
2,3, 1, 3, 0,19, 0.00,60.00,Tuesday
6,4.9625
7,9.271963958896704
8,6.791214072017098
9,12.299998174528156
10,6.432952971926344
11,0.0
83,0.0
115,957008.6679964387
147,0.0
2,3, 1, 3, 0,20, 0.00,60.00,Tuesday
6,2.3125
7,8.218201201325759
8,4.240600826686912
9,12.300002431273409
10,3.9087367116170999
11,0.0
83,0.0
115,1318829.0911959077
147,0.0
2,3, 1, 3, 0,21, 0.00,60.00,Tuesday
6,0.9125
7,6.91298938639474
8,2.7732363873875824
9,12.299987002062638
10,2.460686893420496
11,0.0
83,0.0
115,1317051.4830318965
147,0.0
2,3, 1, 3, 0,22, 0.00,60.00,Tuesday
6,1.3877787807814458e-17
7,5.66354652136074
8,1.5260436468114063
9,12.299992843271668
10,1.2160788803985466
11,0.0
83,0.0
115,1273006.4872580085
147,0.0
2,3, 1, 3, 0,23, 0.00,60.00,Tuesday
6,-0.8
7,4.711762867016955
8,0.6708928634547573
9,12.29997825282717
10,0.3759080686404136
11,0.0
83,0.0
115,1259896.9907063493
147,0.0
2,3, 1, 3, 0,24, 0.00,60.00,Tuesday
6,-1.225
7,3.4727953207890218
8,-0.08546343048040552
9,12.299999999999474
10,-0.36881660347927205
11,0.0
83,0.0
115,1191624.7380960703
147,0.0
2,4, 1, 4, 0, 1, 0.00,60.00,Wednesday
6,-1.1750000000000003
7,2.7060521361690896
8,-0.4359303721432722
9,12.299904444407244
10,-0.7062395265165345
11,0.0
83,0.0
115,1148783.7418620389
147,0.0
2,4, 1, 4, 0, 2, 0.00,60.00,Wednesday
6,-1.725
7,1.988713818237005
8,-0.9661239784730984
9,12.299999986792816
10,-1.228486047263441
11,0.0
83,0.0
115,1136888.4396628875
147,0.0
2,4, 1, 4, 0, 3, 0.00,60.00,Wednesday
6,-2.8499999999999998
7,1.4326804923917438
8,-1.797641212478172
9,12.300000000000047
10,-2.0487042553319325
11,0.0
83,0.0
115,1226779.6149977586
147,0.0
2,4, 1, 4, 0, 4, 0.00,60.00,Wednesday
6,-3.4875
7,0.9472416435371688
8,-2.504870570970872
9,12.300000000000056
10,-2.743007362848638
11,0.0
83,0.0
115,1309927.5069055358
147,0.0
2,4, 1, 4, 0, 5, 0.00,60.00,Wednesday
6,-4.2875000000000009
7,0.49591871132139656
8,-3.185373686488143
9,12.300000000000115
10,-3.4142563550175115
11,0.0
83,0.0
115,1401308.5365234893
147,0.0
2,4, 1, 4, 0, 6, 0.00,60.00,Wednesday
6,-4.3875
7,5.941404200619875
8,2.477874341253644
9,12.299816734405976
10,3.153098786701944
11,0.0
83,0.0
115,1270865.116688724
147,0.0
2,4, 1, 4, 0, 7, 0.00,60.00,Wednesday
6,-2.5125
7,16.94439572245006
8,12.847979332342448
9,12.299259843589745
10,14.917417922754563
11,0.0
83,0.0
115,780969.5952133506
147,0.0
2,4, 1, 4, 0, 8, 0.00,60.00,Wednesday
6,0.3124999999999999
7,24.23806636790289
8,20.87033196415522
9,12.29848471513966
10,23.50354326143883
11,0.0
83,0.0
115,403945.65578888959
147,0.0
2,4, 1, 4, 0, 9, 0.00,60.00,Wednesday
6,4.3999999999999999
7,31.522627291065523
8,30.235806202468845
9,12.298077347193847
10,32.97683910281647
11,0.0
83,0.0
115,30860.76489681921
147,0.0
2,4, 1, 4, 0,10, 0.00,60.00,Wednesday
6,8.1375
7,35.7818224224915
8,37.30148089568021
9,12.298260409899271
10,39.368916255048159
11,0.0
83,0.0
115,0.0
147,0.0
2,4, 1, 4, 0,11, 0.00,60.00,Wednesday
6,10.55
7,37.39667431825167
8,41.91226489482179
9,12.299200759580558
10,42.82508490784052
11,0.0
83,0.0
115,0.0
147,0.0
2,4, 1, 4, 0,12, 0.00,60.00,Wednesday
6,12.2375
7,37.159787531052817
8,43.17157390810381
9,12.300113599488756
10,43.206689707465489
11,0.0
83,0.0
115,0.0
147,0.0
2,4, 1, 4, 0,13, 0.00,60.00,Wednesday
6,13.3
7,36.13756585781524
8,41.34957340296256
9,12.300940165856919
10,40.9302528361702
11,0.0
83,0.0
115,0.0
147,0.0
2,4, 1, 4, 0,14, 0.00,60.00,Wednesday
6,14.1
7,30.930952548130724
8,36.31776958266266
9,12.301986926446027
10,35.00013446142315
11,0.0
83,0.0
115,0.0
147,0.0
2,4, 1, 4, 0,15, 0.00,60.00,Wednesday
6,13.649999999999999
7,25.00525275413673
8,32.44741908366245
9,12.300008902124129
10,30.05702221270127
11,0.0
83,0.0
115,0.0
147,0.0
2,4, 1, 4, 0,16, 0.00,60.00,Wednesday
6,12.7625
7,20.673910073464339
8,27.195622802129554
9,12.30000004114929
10,24.453690184903296
11,0.0
83,0.0
115,0.0
147,0.0
2,4, 1, 4, 0,17, 0.00,60.00,Wednesday
6,11.187499999999999
7,15.060733175994749
8,17.846960762680405
9,12.299999150155078
10,16.600798382086074
11,0.0
83,0.0
115,164059.5731868266
147,0.0
2,4, 1, 4, 0,18, 0.00,60.00,Wednesday
6,8.4
7,11.166287055449452
8,10.379094149185637
9,12.299996893998886
10,9.920405875923804
11,0.0
83,0.0
115,611839.5501180051
147,0.0
2,4, 1, 4, 0,19, 0.00,60.00,Wednesday
6,5.0125
7,8.916972090586805
8,6.596020341163824
9,12.299996346418816
10,6.2312720218065
11,0.0
83,0.0
115,922048.311466079
147,0.0
2,4, 1, 4, 0,20, 0.00,60.00,Wednesday
6,2.6375
7,6.6675155702747539
8,4.146807654753923
9,12.299984056870315
10,3.7952748046944659
11,0.0
83,0.0
115,982546.0598601054
147,0.0
2,4, 1, 4, 0,21, 0.00,60.00,Wednesday
6,1.5624999999999998
7,5.190166724900131
8,2.7057981560819948
9,12.299999999938219
10,2.3625504344751078
11,0.0
83,0.0
115,1005093.7673421613
147,0.0
2,4, 1, 4, 0,22, 0.00,60.00,Wednesday
6,1.3624999999999999
7,3.9100823085786335
8,1.9370392639266075
9,12.299923019115142
10,1.602585397496909
11,0.0
83,0.0
115,949567.020981788
147,0.0
2,4, 1, 4, 0,23, 0.00,60.00,Wednesday
6,0.7124999999999999
7,3.4883482295887098
8,1.408887908372003
9,12.299999999995928
10,1.0921549011504253
11,0.0
83,0.0
115,983635.6276294376
147,0.0
2,4, 1, 4, 0,24, 0.00,60.00,Wednesday
6,-0.1375
7,2.946662506415234
8,0.6208469142414693
9,12.300000000000143
10,0.32134493954136947
11,0.0
83,0.0
115,1022956.2250818156
147,0.0
2,5, 1, 5, 0, 1, 0.00,60.00,Thursday
6,-0.7125
7,2.3901412563398858
8,-0.2391870764763943
9,12.300000000000079
10,-0.5315606838700365
11,0.0
83,0.0
115,1075862.964810277
147,0.0
2,5, 1, 5, 0, 2, 0.00,60.00,Thursday
6,-1.525
7,2.0850643291855737
8,-0.8505622770772716
9,12.300000000000149
10,-1.128100299730066
11,0.0
83,0.0
115,1153193.6786124795
147,0.0
2,5, 1, 5, 0, 3, 0.00,60.00,Thursday
6,-2.0875
7,1.7394071592040708
8,-1.3735282806826628
9,12.3000000000001
10,-1.6339113005323776
11,0.0
83,0.0
115,1212449.2668302232
147,0.0
2,5, 1, 5, 0, 4, 0.00,60.00,Thursday
6,-2.5749999999999999
7,1.3269996310478796
8,-1.8848719365225939
9,12.30000000000007
10,-2.132770051793468
11,0.0
83,0.0
115,1260528.1907784965
147,0.0
2,5, 1, 5, 0, 5, 0.00,60.00,Thursday
6,-2.8625
7,1.0883297431348476
8,-2.3582467002078655
9,12.300000000000109
10,-2.5948016698010227
11,0.0
83,0.0
115,1333715.0179803088
147,0.0
2,5, 1, 5, 0, 6, 0.00,60.00,Thursday
6,-3.2125
7,5.086660442512086
8,2.283449899487324
9,12.299528953693974
10,2.2819591473544644
11,0.0
83,0.0
115,1193764.5383061483
147,0.0
2,5, 1, 5, 0, 7, 0.00,60.00,Thursday
6,-2.9
7,14.67102558678016
8,11.677825867115317
9,12.299541086977797
10,12.986817798638246
11,0.0
83,0.0
115,792868.1206266658
147,0.0
2,5, 1, 5, 0, 8, 0.00,60.00,Thursday
6,0.2124999999999999
7,21.832864883631314
8,19.662268598705479
9,12.299755905382277
10,21.30671677557137
11,0.0
83,0.0
115,407844.83229650006
147,0.0
2,5, 1, 5, 0, 9, 0.00,60.00,Thursday
6,4.5249999999999999
7,28.84095308933393
8,28.57766946014822
9,12.3
10,30.18603064536687
11,0.0
83,0.0
115,38294.47933276445
147,0.0
2,5, 1, 5, 0,10, 0.00,60.00,Thursday
6,7.975
7,34.18309841333729
8,36.129269882835497
9,12.297295444793015
10,37.43167844105919
11,0.0
83,0.0
115,0.0
147,0.0
2,5, 1, 5, 0,11, 0.00,60.00,Thursday
6,10.6625
7,33.656059591432697
8,36.27705816742194
9,12.302212926170619
10,36.68388232692993
11,0.0
83,0.0
115,0.0
147,0.0
2,5, 1, 5, 0,12, 0.00,60.00,Thursday
6,12.1
7,25.713855505150229
8,27.104532818428646
9,12.301907868069783
10,27.044830218272844
11,0.0
83,0.0
115,0.0
147,0.0
2,5, 1, 5, 0,13, 0.00,60.00,Thursday
6,11.962499999999999
7,21.42739652704867
8,22.10551873127126
9,12.300890074500327
10,21.970536603847486
11,0.0
83,0.0
115,4105.758114469714
147,0.0
2,5, 1, 5, 0,14, 0.00,60.00,Thursday
6,11.0125
7,20.740134680449964
8,21.255693959683403
9,12.301426433177458
10,21.088684570795296
11,0.0
83,0.0
115,87859.8210035413
147,0.0
2,5, 1, 5, 0,15, 0.00,60.00,Thursday
6,9.2875
7,18.65115161675948
8,18.693713981100904
9,12.300992296765405
10,18.517907841959415
11,0.0
83,0.0
115,184883.07461883283
147,0.0
2,5, 1, 5, 0,16, 0.00,60.00,Thursday
6,8.375
7,13.57129814208525
8,13.573272776377602
9,12.300000269926564
10,13.420733671517042
11,0.0
83,0.0
115,488989.7499334045
147,0.0
2,5, 1, 5, 0,17, 0.00,60.00,Thursday
6,5.55
7,10.013321590353926
8,8.514188151599078
9,12.299996016168875
10,8.306426605350154
11,0.0
83,0.0
115,841499.9048498999
147,0.0
2,5, 1, 5, 0,18, 0.00,60.00,Thursday
6,3.0875
7,7.706362256601409
8,4.719749896446333
9,12.299985018396612
10,4.489829352767441
11,0.0
83,0.0
115,1164186.5150012926
147,0.0
2,5, 1, 5, 0,19, 0.00,60.00,Thursday
6,2.7249999999999998
7,6.839283533553399
8,3.374047629941055
9,12.299981278336178
10,3.1336033158493237
11,0.0
83,0.0
115,1252023.6180911773
147,0.0
2,5, 1, 5, 0,20, 0.00,60.00,Thursday
6,2.9875
7,5.181618182865088
8,2.9429182624907099
9,12.299999671173412
10,2.6934772602953207
11,0.0
83,0.0
115,1071636.5935437263
147,0.0
2,5, 1, 5, 0,21, 0.00,60.00,Thursday
6,3.0375
7,4.5536071483568609
8,2.6024227457697579
9,12.300000000000022
10,2.3471391804340335
11,0.0
83,0.0
115,1045063.4279669453
147,0.0
2,5, 1, 5, 0,22, 0.00,60.00,Thursday
6,2.9375000000000006
7,4.3765141860562128
8,2.386259590640686
9,12.300000000000147
10,2.135186524230022
11,0.0
83,0.0
115,1053263.3157247897
147,0.0
2,5, 1, 5, 0,23, 0.00,60.00,Thursday
6,2.9625
7,4.312739792525283
8,2.237496232409484
9,12.300000000000117
10,1.991862829133837
11,0.0
83,0.0
115,1070103.680384594
147,0.0
2,5, 1, 5, 0,24, 0.00,60.00,Thursday
6,2.8125
7,4.4493688861828339
8,2.2942130074353956
9,12.300000000000031
10,2.06185536809339
11,0.0
83,0.0
115,1100327.0842625676
147,0.0
2,6, 1, 6, 0, 1, 0.00,60.00,Friday
6,2.2
7,4.159009212030047
8,1.9700058130865937
9,12.300000000000031
10,1.7478707277887813
11,0.0
83,0.0
115,1138217.3724737163
147,0.0
2,6, 1, 6, 0, 2, 0.00,60.00,Friday
6,0.775
7,3.805029743868883
8,1.0936734210887283
9,12.300010105304152
10,0.8803149665309443
11,0.0
83,0.0
115,1258106.238332673
147,0.0
2,6, 1, 6, 0, 3, 0.00,60.00,Friday
6,0.28750000000000006
7,2.8194673389887314
8,0.006548890653702802
9,12.30000000007108
10,-0.20797041116527074
11,0.0
83,0.0
115,1295204.5770386346
147,0.0
2,6, 1, 6, 0, 4, 0.00,60.00,Friday
6,0.7125
7,2.710451134051796
8,-0.2115182711419738
9,12.300000000000125
10,-0.4223665194511966
11,0.0
83,0.0
115,1331545.267359744
147,0.0
2,6, 1, 6, 0, 5, 0.00,60.00,Friday
6,0.9
7,3.0800174502763557
8,0.11367232075522657
9,12.300000000000037
10,-0.08228925243274552
11,0.0
83,0.0
115,1377796.2652257323
147,0.0
2,6, 1, 6, 0, 6, 0.00,60.00,Friday
6,0.7125
7,7.432782734196183
8,5.356478262920705
9,12.299780877800407
10,5.291780883401616
11,0.0
83,0.0
115,1220185.0316997455
147,0.0
2,6, 1, 6, 0, 7, 0.00,60.00,Friday
6,1.1625
7,14.532054963912272
8,12.349641160482115
9,12.299736146540523
10,12.7676857161666
11,0.0
83,0.0
115,870235.269875881
147,0.0
2,6, 1, 6, 0, 8, 0.00,60.00,Friday
6,2.125
7,18.611656787642028
8,16.78211572197752
9,12.299354136957345
10,17.18501117389382
11,0.0
83,0.0
115,610986.1924620048
147,0.0
2,6, 1, 6, 0, 9, 0.00,60.00,Friday
6,3.1874999999999997
7,22.938829989425103
8,21.841178570996556
9,12.298645303827092
10,22.224954261654994
11,0.0
83,0.0
115,321395.789414227
147,0.0
2,6, 1, 6, 0,10, 0.00,60.00,Friday
6,4.7875
7,27.50080610472022
8,27.263878883490546
9,12.298833446434314
10,27.82888478847072
11,0.0
83,0.0
115,66609.64904041292
147,0.0
2,6, 1, 6, 0,11, 0.00,60.00,Friday
6,6.75
7,30.87915128075569
8,32.1646367283781
9,12.299009761342849
10,32.56810589256609
11,0.0
83,0.0
115,0.0
147,0.0
2,6, 1, 6, 0,12, 0.00,60.00,Friday
6,8.5625
7,31.516480384837786
8,34.31481222702498
9,12.29928868141056
10,34.274432597198209
11,0.0
83,0.0
115,0.0
147,0.0
2,6, 1, 6, 0,13, 0.00,60.00,Friday
6,10.200000000000001
7,31.253231745302636
8,33.63144239008199
9,12.301160290434872
10,33.22722359120033
11,0.0
83,0.0
115,0.0
147,0.0
2,6, 1, 6, 0,14, 0.00,60.00,Friday
6,11.2375
7,26.230367877495625
8,27.188998708427499
9,12.30239288245856
10,26.86827455307828
11,0.0
83,0.0
115,0.0
147,0.0
2,6, 1, 6, 0,15, 0.00,60.00,Friday
6,11.562500000000002
7,20.164464293291723
8,20.991259272880588
9,12.300862486071868
10,20.817288155801099
11,0.0
83,0.0
115,62919.23365279879
147,0.0
2,6, 1, 6, 0,16, 0.00,60.00,Friday
6,9.1625
7,14.355742701830325
8,15.001760963887712
9,12.300152367530265
10,14.87513350484632
11,0.0
83,0.0
115,451904.0759424221
147,0.0
2,6, 1, 6, 0,17, 0.00,60.00,Friday
6,5.762500000000001
7,10.88075927948905
8,8.612963389509713
9,12.299999547916354
10,8.468079019750459
11,0.0
83,0.0
115,1195482.4832799445
147,0.0
2,6, 1, 6, 0,18, 0.00,60.00,Friday
6,2.6625
7,8.370949788363547
8,4.558761275256498
9,12.299966556612482
10,4.404508440240817
11,0.0
83,0.0
115,1451371.0572169959
147,0.0
2,6, 1, 6, 0,19, 0.00,60.00,Friday
6,1.5
7,6.4643461459748139
8,2.393951361950305
9,12.299975437370716
10,2.2359928182458428
11,0.0
83,0.0
115,1445502.4408957563
147,0.0
2,6, 1, 6, 0,20, 0.00,60.00,Friday
6,1.5
7,6.2049037040044709
8,1.8613342020369737
9,12.299999999993546
10,1.705200544565876
11,0.0
83,0.0
115,1496950.4613391739
147,0.0
2,6, 1, 6, 0,21, 0.00,60.00,Friday
6,0.5625
7,5.122766675062447
8,1.2205192241222756
9,12.299977551793976
10,1.0666009048987917
11,0.0
83,0.0
115,1441247.0462123396
147,0.0
2,6, 1, 6, 0,22, 0.00,60.00,Friday
6,0.0
7,4.113154558556207
8,0.35838293772595555
9,12.29999999999926
10,0.20518813540764295
11,0.0
83,0.0
115,1436346.2216078239
147,0.0
2,6, 1, 6, 0,23, 0.00,60.00,Friday
6,0.0625
7,3.4929713338352466
8,0.0649815827909973
9,12.300000000000154
10,-0.08625998765398226
11,0.0
83,0.0
115,1401302.5119614024
147,0.0
2,6, 1, 6, 0,24, 0.00,60.00,Friday
6,0.0375
7,3.1568514975746049
8,-0.09391564121994794
9,12.300000000000074
10,-0.24346964222587737
11,0.0
83,0.0
115,1398623.7714254815
147,0.0
2,7, 1, 7, 0, 1, 0.00,60.00,Saturday
6,0.0
7,3.078433792785281
8,-0.3092297867849146
9,12.300000000000127
10,-0.4551131833460813
11,0.0
83,0.0
115,1435502.7603576307
147,0.0
2,7, 1, 7, 0, 2, 0.00,60.00,Saturday
6,0.125
7,2.6725289387536677
8,-0.503653634808241
9,12.300000000000044
10,-0.6474903960584164
11,0.0
83,0.0
115,1425506.7462601956
147,0.0
2,7, 1, 7, 0, 3, 0.00,60.00,Saturday
6,0.2625
7,2.7039082297540917
8,-0.4021798585406798
9,12.300000000000076
10,-0.541968417466774
11,0.0
83,0.0
115,1442004.4232110047
147,0.0
2,7, 1, 7, 0, 4, 0.00,60.00,Saturday
6,0.1125
7,2.510052400106466
8,-0.5516626308297603
9,12.299999999999982
10,-0.6882355798389428
11,0.0
83,0.0
115,1465710.152403262
147,0.0
2,7, 1, 7, 0, 5, 0.00,60.00,Saturday
6,-0.0625
7,2.229403560675172
8,-1.0221887461915682
9,12.300000000000177
10,-1.1587388370982326
11,0.0
83,0.0
115,1523480.9722351337
147,0.0
2,7, 1, 7, 0, 6, 0.00,60.00,Saturday
6,0.14999999999999998
7,5.21523367121642
8,2.545557814236124
9,12.299620437121725
10,2.4372703337166836
11,0.0
83,0.0
115,1435965.5763785716
147,0.0
2,7, 1, 7, 0, 7, 0.00,60.00,Saturday
6,0.6749999999999999
7,8.48863545945812
8,6.851779307792198
9,12.300199553187877
10,6.743060543400901
11,0.0
83,0.0
115,1217650.3304458315
147,0.0
2,7, 1, 7, 0, 8, 0.00,60.00,Saturday
6,1.275
7,14.166294140561432
8,13.017769309316412
9,12.2997848987506
10,13.017581557182073
11,0.0
83,0.0
115,939014.9017257756
147,0.0
2,7, 1, 7, 0, 9, 0.00,60.00,Saturday
6,2.375
7,25.763439708341268
8,25.516520657085189
9,12.298603837094835
10,26.564440096150869
11,0.0
83,0.0
115,421423.3627829245
147,0.0
2,7, 1, 7, 0,10, 0.00,60.00,Saturday
6,4.5874999999999999
7,31.192557933506025
8,32.30782076274589
9,12.297188270084423
10,33.284754206234939
11,0.0
83,0.0
115,17481.899809954455
147,0.0
2,7, 1, 7, 0,11, 0.00,60.00,Saturday
6,6.9125
7,32.43845185785507
8,34.80265349461571
9,12.301254420598559
10,35.28160498454531
11,0.0
83,0.0
115,0.0
147,0.0
2,7, 1, 7, 0,12, 0.00,60.00,Saturday
6,9.075000000000001
7,27.74252946162208
8,29.282723258105557
9,12.301199962216814
10,29.276369173481965
11,0.0
83,0.0
115,0.0
147,0.0
2,7, 1, 7, 0,13, 0.00,60.00,Saturday
6,10.025
7,20.584689434694434
8,20.975608335471678
9,12.300863215723793
10,20.900904554718364
11,0.0
83,0.0
115,247853.42637828287
147,0.0
2,7, 1, 7, 0,14, 0.00,60.00,Saturday
6,8.912499999999998
7,16.19499814784207
8,16.328459429937735
9,12.300882986158087
10,16.256487967863579
11,0.0
83,0.0
115,533749.6682757742
147,0.0
2,7, 1, 7, 0,15, 0.00,60.00,Saturday
6,6.887499999999999
7,10.982666959048398
8,10.422233416129679
9,12.299962655542745
10,10.326657298221236
11,0.0
83,0.0
115,836337.118071497
147,0.0
2,7, 1, 7, 0,16, 0.00,60.00,Saturday
6,5.0375
7,9.304274228416249
8,7.456289234721533
9,12.300005412485334
10,7.350147218847419
11,0.0
83,0.0
115,1211661.085246611
147,0.0
2,7, 1, 7, 0,17, 0.00,60.00,Saturday
6,3.5250000000000005
7,9.276347340236445
8,5.720931571005846
9,12.300000000043815
10,5.609381562096859
11,0.0
83,0.0
115,1623986.7220828704
147,0.0
2,7, 1, 7, 0,18, 0.00,60.00,Saturday
6,2.5625
7,8.074630519132706
8,3.55952327625055
9,12.300000000000069
10,3.443488876001557
11,0.0
83,0.0
115,1792724.54985601
147,0.0
2,7, 1, 7, 0,19, 0.00,60.00,Saturday
6,2.3625
7,6.715086168868041
8,2.5058484581341138
9,12.300000000000145
10,2.3818285925779389
11,0.0
83,0.0
115,1681700.466854579
147,0.0
2,7, 1, 7, 0,20, 0.00,60.00,Saturday
6,2.3374999999999996
7,6.531734046451945
8,2.379140046010063
9,12.300000000000044
10,2.254776415418613
11,0.0
83,0.0
115,1679483.9899544586
147,0.0
2,7, 1, 7, 0,21, 0.00,60.00,Saturday
6,2.1125
7,5.641237638918064
8,2.0785340136527505
9,12.299986393066592
10,1.9528484491627128
11,0.0
83,0.0
115,1581024.7838744163
147,0.0
2,7, 1, 7, 0,22, 0.00,60.00,Saturday
6,1.8125000000000003
7,4.272112472941068
8,1.4116417657093053
9,12.299960463139862