Program Version,EnergyPlus, Version 8.7.0-78a111df4a, YMD=2023.08.29 11:02
1,5,Environment Title[],Latitude[deg],Longitude[deg],Time Zone[],Elevation[m]
2,6,Day of Simulation[],Month[],Day of Month[],DST Indicator[1=yes 0=no],Hour[],StartMinute[],EndMinute[],DayType
3,3,Cumulative Day of Simulation[],Month[],Day of Month[],DST Indicator[1=yes 0=no],DayType  ! When Daily Report Variables Requested
4,2,Cumulative Days of Simulation[],Month[]  ! When Monthly Report Variables Requested
5,1,Cumulative Days of Simulation[] ! When Run Period Report Variables Requested
6,1,Environment,Site Outdoor Air Drybulb Temperature [C] !Hourly
7,1,ATICO CEN,Zone Mean Air Temperature [C] !Hourly
8,1,ATICO E,Zone Mean Air Temperature [C] !Hourly
9,1,MODULO,Zone Mean Air Temperature [C] !Hourly
10,1,ATICO O,Zone Mean Air Temperature [C] !Hourly
End of Data Dictionary
1,2022, -15.85, -71.09,  -5.00,4469.00
2,1, 1, 1, 0, 1, 0.00,60.00,Sunday
6,1.4124999999999999
7,0.8427121855591583
8,0.5572887311439188
9,6.668365883678756
10,0.25086736928488648
2,1, 1, 1, 0, 2, 0.00,60.00,Sunday
6,1.9
7,1.38672458279748
8,1.140578953450014
9,6.691572371454035
10,0.8524197862980955
2,1, 1, 1, 0, 3, 0.00,60.00,Sunday
6,1.7125
7,1.2205052979675486
8,0.9406615963231294
9,6.564338379320923
10,0.6642782779769199
2,1, 1, 1, 0, 4, 0.00,60.00,Sunday
6,1.0375
7,0.5688564478589753
8,0.19947901927516946
9,6.297597229440786
10,-0.07338068489912825
2,1, 1, 1, 0, 5, 0.00,60.00,Sunday
6,0.7625
7,0.11699979273279755
8,-0.3236828470031493
9,6.056693277940553
10,-0.5859390779892035
2,1, 1, 1, 0, 6, 0.00,60.00,Sunday
6,0.55
7,6.779689061834247
8,5.268688679545956
9,6.22200708496714
10,5.813982443105848
2,1, 1, 1, 0, 7, 0.00,60.00,Sunday
6,2.4625000000000005
7,20.84807955150292
8,16.062874205371018
9,8.407347848674356
10,17.949030331148199
2,1, 1, 1, 0, 8, 0.00,60.00,Sunday
6,5.575
7,31.41035033213108
8,25.344065488236784
9,10.181265115438823
10,27.95443510974539
2,1, 1, 1, 0, 9, 0.00,60.00,Sunday
6,8.2625
7,40.33529959855388
8,34.20117954574739
9,13.662747273858699
10,37.06549834586011
2,1, 1, 1, 0,10, 0.00,60.00,Sunday
6,10.200000000000001
7,44.736654740096017
8,40.07390377228889
9,15.647197112873626
10,42.078970588117588
2,1, 1, 1, 0,11, 0.00,60.00,Sunday
6,11.3
7,44.3170332158504
8,41.357056440918999
9,16.75312580626929
10,42.141131297487387
2,1, 1, 1, 0,12, 0.00,60.00,Sunday
6,12.1625
7,40.99757238788096
8,39.51150024945807
9,16.968803702087049
10,39.53314667861341
2,1, 1, 1, 0,13, 0.00,60.00,Sunday
6,12.749999999999999
7,32.09304977262383
8,30.89623210019178
9,15.796443364515234
10,30.69826280120364
2,1, 1, 1, 0,14, 0.00,60.00,Sunday
6,13.087499999999999
7,20.00508425470143
8,19.886361678726588
9,13.633268923691873
10,19.697957847652839
2,1, 1, 1, 0,15, 0.00,60.00,Sunday
6,9.1375
7,14.218062232395536
8,14.498049854397259
9,11.946219004523958
10,14.301775245282303
2,1, 1, 1, 0,16, 0.00,60.00,Sunday
6,5.887500000000001
7,9.4744928740998
8,9.573901381542094
9,10.466878640168476
10,9.349311937795559
2,1, 1, 1, 0,17, 0.00,60.00,Sunday
6,4.025
7,7.389438423036802
8,7.586597430979596
9,9.536751780260966
10,7.329605698455199
2,1, 1, 1, 0,18, 0.00,60.00,Sunday
6,2.3875
7,3.858547500398755
8,4.169395873463002
9,9.038359605495032
10,3.8718586742173306
2,1, 1, 1, 0,19, 0.00,60.00,Sunday
6,2.4000000000000005
7,2.2536162293795627
8,2.442860046421301
9,7.763316743294213
10,2.1209164153096324
2,1, 1, 1, 0,20, 0.00,60.00,Sunday
6,2.575
7,2.207139481027626
8,2.3635547127194176
9,7.585341323977395
10,2.0380559907184265
2,1, 1, 1, 0,21, 0.00,60.00,Sunday
6,2.375
7,1.9145124620571066
8,1.9797860810738282
9,7.412106723505049
10,1.6505451159806873
2,1, 1, 1, 0,22, 0.00,60.00,Sunday
6,1.8625000000000003
7,1.3873150691770527
8,1.3637731490977577
9,7.19122222367185
10,1.0308822361378388
2,1, 1, 1, 0,23, 0.00,60.00,Sunday
6,1.4125
7,0.8829421821947991
8,0.739719218559611
9,6.958298592469507
10,0.40695097635229929
2,1, 1, 1, 0,24, 0.00,60.00,Sunday
6,0.8625
7,0.5724663853834308
8,0.35764644313940366
9,6.719741706217866
10,0.03640253892747666
2,2, 1, 2, 0, 1, 0.00,60.00,Monday
6,0.35
7,0.23490590242600635
8,-0.05325860683581353
9,6.469576470806417
10,-0.3612667913364449
2,2, 1, 2, 0, 2, 0.00,60.00,Monday
6,0.1375
7,0.030375520718574607
8,-0.3158642152318024
9,6.270027764597921
10,-0.6105001248669094
2,2, 1, 2, 0, 3, 0.00,60.00,Monday
6,0.0375
7,-0.17602544978172109
8,-0.5670355164039076
9,6.095538546489174
10,-0.8505178577889163
2,2, 1, 2, 0, 4, 0.00,60.00,Monday
6,-0.125
7,-0.47638235498064948
8,-0.9275319338779833
9,5.90301737578239
10,-1.2018351874476428
2,2, 1, 2, 0, 5, 0.00,60.00,Monday
6,-0.7625000000000001
7,-0.8955918016633956
8,-1.3993801163648628
9,5.62826625090206
10,-1.6617183106001954
2,2, 1, 2, 0, 6, 0.00,60.00,Monday
6,-0.975
7,6.069508768058752
8,4.627217556980559
9,5.792817010666935
10,5.071575412605544
2,2, 1, 2, 0, 7, 0.00,60.00,Monday
6,0.16250000000000004
7,18.870178815667904
8,14.15875670209924
9,7.936059580631639
10,15.942649329591342
2,2, 1, 2, 0, 8, 0.00,60.00,Monday
6,2.9250000000000004
7,27.433235830686887
8,21.010343167494065
9,9.512982905053466
10,23.485226441127414
2,2, 1, 2, 0, 9, 0.00,60.00,Monday
6,6.324999999999999
7,36.90098571989314
8,30.338068758337028
9,12.899095818638447
10,33.123446832671678
2,2, 1, 2, 0,10, 0.00,60.00,Monday
6,9.0375
7,42.60918761185588
8,37.29001738394761
9,15.050640773680966
10,39.41994785456114
2,2, 1, 2, 0,11, 0.00,60.00,Monday
6,10.5875
7,43.86950381389969
8,40.7454072704118
9,16.451037570506409
10,41.57042066095272
2,2, 1, 2, 0,12, 0.00,60.00,Monday
6,12.000000000000002
7,43.244369666272948
8,41.88305787860956
9,17.370640079883118
10,41.91675367378895
2,2, 1, 2, 0,13, 0.00,60.00,Monday
6,13.599999999999998
7,41.188398930211437
8,39.685027512744529
9,17.54504220310911
10,39.22942811534445
2,2, 1, 2, 0,14, 0.00,60.00,Monday
6,14.575
7,29.05938836962326
8,28.471231583866119
9,15.734407534222627
10,28.03629324627898
2,2, 1, 2, 0,15, 0.00,60.00,Monday
6,12.8
7,23.753513887582387
8,22.982675982957745
9,14.291528836588413
10,22.34323828114244
2,2, 1, 2, 0,16, 0.00,60.00,Monday
6,10.099999999999998
7,17.981057138631905
8,17.270199391646036
9,12.89203758043168
10,16.91790844840985
2,2, 1, 2, 0,17, 0.00,60.00,Monday
6,8.1375
7,11.974530969249042
8,11.963567668897582
9,11.360292223810167
10,11.686273313434697
2,2, 1, 2, 0,18, 0.00,60.00,Monday
6,6.125000000000001
7,7.189570853819402
8,7.6250489419604599
9,10.188257630808853
10,7.345099973911774
2,2, 1, 2, 0,19, 0.00,60.00,Monday
6,5.362500000000001
7,4.992430584846157
8,5.4651310797391619
9,8.956624448343622
10,5.16061148036761
2,2, 1, 2, 0,20, 0.00,60.00,Monday
6,4.525
7,4.034495305591686
8,4.418474179073645
9,8.450058985348975
10,4.101739773081928
2,2, 1, 2, 0,21, 0.00,60.00,Monday
6,3.5
7,3.4146722653205567
8,3.6819620907622827
9,8.050137358593432
10,3.376241845191924
2,2, 1, 2, 0,22, 0.00,60.00,Monday
6,2.7625
7,2.53757587083825
8,2.702271953724562
9,7.734305819378652
10,2.3964291049759698
2,2, 1, 2, 0,23, 0.00,60.00,Monday
6,2.0
7,1.7289690369061584
8,1.7662086464611349
9,7.417524719716909
10,1.4618296747895155
2,2, 1, 2, 0,24, 0.00,60.00,Monday
6,1.3249999999999998
7,1.1821130773203393
8,1.0903892026848743
9,7.119324562826877
10,0.7969904460271756
2,3, 1, 3, 0, 1, 0.00,60.00,Tuesday
6,0.9125000000000001
7,0.7328508260750611
8,0.5722215695326711
9,6.878612187765315
10,0.29328312446831286
2,3, 1, 3, 0, 2, 0.00,60.00,Tuesday
6,0.05000000000000002
7,0.041868119268741208
8,-0.21220544968608094
9,6.562440723606634
10,-0.48216010366896236
2,3, 1, 3, 0, 3, 0.00,60.00,Tuesday
6,-0.4625
7,-0.5295791404485993
8,-0.9073332331396097
9,6.266464076119685
10,-1.164634558372926
2,3, 1, 3, 0, 4, 0.00,60.00,Tuesday
6,-0.8750000000000001
7,-0.9978062322166701
8,-1.4337633657484497
9,6.014222680193843
10,-1.6795335874293154
2,3, 1, 3, 0, 5, 0.00,60.00,Tuesday
6,-1.6625
7,-1.590128817526722
8,-2.1227577326586184
9,5.674447129770646
10,-2.3568975132256706
2,3, 1, 3, 0, 6, 0.00,60.00,Tuesday
6,-2.375
7,5.031763292659853
8,3.596767046675028
9,5.697240367930345
10,4.140737079396944
2,3, 1, 3, 0, 7, 0.00,60.00,Tuesday
6,-2.1625
7,18.32501308298977
8,13.648628638916135
9,7.964989610402173
10,15.562108922300633
2,3, 1, 3, 0, 8, 0.00,60.00,Tuesday
6,-0.525
7,27.91403140216857
8,21.990610474484855
9,9.486582625841038
10,24.584014970292445
2,3, 1, 3, 0, 9, 0.00,60.00,Tuesday
6,3.55
7,37.918175517222199
8,32.11784417773855
9,13.214054070021812
10,34.79818600186899
2,3, 1, 3, 0,10, 0.00,60.00,Tuesday
6,7.812499999999999
7,43.94074760755368
8,39.22401232434201
9,15.430482863403397
10,41.37403087457925
2,3, 1, 3, 0,11, 0.00,60.00,Tuesday
6,10.6375
7,43.37482069381347
8,39.62422685666646
9,16.87582810581928
10,40.65744981094434
2,3, 1, 3, 0,12, 0.00,60.00,Tuesday
6,12.3125
7,40.04501365341159
8,37.78944381498214
9,17.266607313079068
10,37.862146190457938
2,3, 1, 3, 0,13, 0.00,60.00,Tuesday
6,13.05
7,37.1964890965906
8,35.37903491523032
9,16.858911806632688
10,35.05251076066068
2,3, 1, 3, 0,14, 0.00,60.00,Tuesday
6,13.0125
7,38.41823304775865
8,36.312872012653
9,16.934635182812565
10,34.95413420675773
2,3, 1, 3, 0,15, 0.00,60.00,Tuesday
6,12.462499999999999
7,37.99268163314314
8,34.85945746520201
9,16.822219230441179
10,31.98713425099067
2,3, 1, 3, 0,16, 0.00,60.00,Tuesday
6,12.2
7,31.87300979136844
8,28.829255555950554
9,15.761714578109608
10,25.596413945411837
2,3, 1, 3, 0,17, 0.00,60.00,Tuesday
6,10.95
7,19.534343640044435
8,18.338262722823648
9,13.653969516526529
10,16.62487114316016
2,3, 1, 3, 0,18, 0.00,60.00,Tuesday
6,8.450000000000001
7,10.08894542695181
8,10.571789867817593
9,11.594799331177257
10,10.014857178322579
2,3, 1, 3, 0,19, 0.00,60.00,Tuesday
6,4.9625
7,6.068822232222056
8,6.743579470131573
9,9.640958014442074
10,6.371510311022524
2,3, 1, 3, 0,20, 0.00,60.00,Tuesday
6,2.3125
7,3.5832047500005359
8,4.068267161491299
9,8.581547044762319
10,3.720355510166533
2,3, 1, 3, 0,21, 0.00,60.00,Tuesday
6,0.9125
7,2.142303702278933
8,2.4841277615812817
9,7.9263222979175629
10,2.154415682949778
2,3, 1, 3, 0,22, 0.00,60.00,Tuesday
6,1.3877787807814458e-17
7,1.013454753845025
8,1.1860800559804279
9,7.471118274540275
10,0.8597611907927614
2,3, 1, 3, 0,23, 0.00,60.00,Tuesday
6,-0.8
7,0.2516078585307919
8,0.2881416996525342
9,7.100791847621145
10,-0.022964676564232179
2,3, 1, 3, 0,24, 0.00,60.00,Tuesday
6,-1.225
7,-0.37350750458145567
8,-0.4798953503522888
9,6.809141805966369
10,-0.778468400741572
2,4, 1, 4, 0, 1, 0.00,60.00,Wednesday
6,-1.1750000000000003
7,-0.604353220443107
8,-0.8286241947281188
9,6.629387325216054
10,-1.1124228880731362
2,4, 1, 4, 0, 2, 0.00,60.00,Wednesday
6,-1.725
7,-1.075690323683835
8,-1.375404922893662
9,6.3828279044770659
10,-1.6491763667362874
2,4, 1, 4, 0, 3, 0.00,60.00,Wednesday
6,-2.8499999999999998
7,-1.8228850568695503
8,-2.234783792008484
9,5.981396838940208
10,-2.4961175989830748
2,4, 1, 4, 0, 4, 0.00,60.00,Wednesday
6,-3.4875
7,-2.4699434945429896
8,-2.975207155991763
9,5.61854729014462
10,-3.2234564056033174
2,4, 1, 4, 0, 5, 0.00,60.00,Wednesday
6,-4.2875000000000009
7,-3.1059404863393778
8,-3.6966516700340086
9,5.240288954686503
10,-3.93543055525824
2,4, 1, 4, 0, 6, 0.00,60.00,Wednesday
6,-4.3875
7,3.5859644093082525
8,1.9145863326625073
9,5.31644741180313
10,2.5370604165529517
2,4, 1, 4, 0, 7, 0.00,60.00,Wednesday
6,-2.5125
7,17.602044071547728
8,12.552371079950941
9,7.781033108089203
10,14.6159386632903
2,4, 1, 4, 0, 8, 0.00,60.00,Wednesday
6,0.3124999999999999
7,27.195219601283076
8,20.864809548069564
9,9.4872689684494
10,23.54607262204282
2,4, 1, 4, 0, 9, 0.00,60.00,Wednesday
6,4.3999999999999999
7,36.63627377257539
8,30.376930487777654
9,13.016318151521136
10,33.184007009877429
2,4, 1, 4, 0,10, 0.00,60.00,Wednesday
6,8.1375
7,42.59317297429571
8,37.68950793627289
9,15.24959914840341
10,39.837171747686088
2,4, 1, 4, 0,11, 0.00,60.00,Wednesday
6,10.55
7,44.97282099905931
8,42.46425033902197
9,16.860918110854166
10,43.431304640950489
2,4, 1, 4, 0,12, 0.00,60.00,Wednesday
6,12.2375
7,44.68875364163786
8,43.79755694411172
9,17.888298989053074
10,43.84867797821105
2,4, 1, 4, 0,13, 0.00,60.00,Wednesday
6,13.3
7,43.37485401919149
8,42.05353712754989
9,18.057595016967967
10,41.6156068785697
2,4, 1, 4, 0,14, 0.00,60.00,Wednesday
6,14.1
7,39.360917359178348
8,37.15868248868981
9,17.562029262688669
10,35.77376152959967
2,4, 1, 4, 0,15, 0.00,60.00,Wednesday
6,13.649999999999999
7,36.38023335144023
8,33.49188966579105
9,16.844534439021943
10,30.963497751618389
2,4, 1, 4, 0,16, 0.00,60.00,Wednesday
6,12.7625
7,30.612804321325773
8,28.047715192362639
9,15.683432125634779
10,25.127548775114119
2,4, 1, 4, 0,17, 0.00,60.00,Wednesday
6,11.187499999999999
7,18.54047143937907
8,18.022545043222196
9,13.652454393256419
10,16.79632939709252
2,4, 1, 4, 0,18, 0.00,60.00,Wednesday
6,8.4
7,9.814087352004386
8,10.466186563913594
9,11.523205145056848
10,9.97813037869394
2,4, 1, 4, 0,19, 0.00,60.00,Wednesday
6,5.0125
7,5.84209075475416
8,6.559892698297203
9,9.627699281722159
10,6.180203139500451
2,4, 1, 4, 0,20, 0.00,60.00,Wednesday
6,2.6375
7,3.441395523948033
8,3.9941460259111287
9,8.603678007379076
10,3.625810122547697
2,4, 1, 4, 0,21, 0.00,60.00,Wednesday
6,1.5624999999999998
7,2.120435191588394
8,2.492716525045384
9,8.024840890210588
10,2.1320972630473049
2,4, 1, 4, 0,22, 0.00,60.00,Wednesday
6,1.3624999999999999
7,1.4779358836181565
8,1.6906479723809503
9,7.727164175140288
10,1.3389465245448434
2,4, 1, 4, 0,23, 0.00,60.00,Wednesday
6,0.7124999999999999
7,1.0717981831811763
8,1.1560592060625439
9,7.443735793163397
10,0.8240142768969887
2,4, 1, 4, 0,24, 0.00,60.00,Wednesday
6,-0.1375
7,0.3480007140443439
8,0.3287167486420542
9,7.120928273998919
10,0.015553024342058089
2,5, 1, 5, 0, 1, 0.00,60.00,Thursday
6,-0.7125
7,-0.4103417359273551
8,-0.5759119571987406
9,6.819547395711417
10,-0.8817989551231387
2,5, 1, 5, 0, 2, 0.00,60.00,Thursday
6,-1.525
7,-0.9405521035759222
8,-1.2239015613729197
9,6.487934593548436
10,-1.5138873083678229
2,5, 1, 5, 0, 3, 0.00,60.00,Thursday
6,-2.0875
7,-1.402767926033463
8,-1.7775293086187974
9,6.180044638274102
10,-2.0496664976166425
2,5, 1, 5, 0, 4, 0.00,60.00,Thursday
6,-2.5749999999999999
7,-1.8637773716881428
8,-2.321480684099662
9,5.890364287029032
10,-2.5805651763026145
2,5, 1, 5, 0, 5, 0.00,60.00,Thursday
6,-2.8625
7,-2.2839111865414316
8,-2.8302640885507936
9,5.61817180342192
10,-3.0777082990574216
2,5, 1, 5, 0, 6, 0.00,60.00,Thursday
6,-3.2125
7,2.7559452462741516
8,1.7700248824961967
9,5.675768723765394
10,1.7576041821018236
2,5, 1, 5, 0, 7, 0.00,60.00,Thursday
6,-2.9
7,14.861591991308487
8,11.36879096677156
9,7.794513277290636
10,12.696659592464283
2,5, 1, 5, 0, 8, 0.00,60.00,Thursday
6,0.2124999999999999
7,24.018589669975407
8,19.589568250227729
9,9.471578200937956
10,21.21641867205133
2,5, 1, 5, 0, 9, 0.00,60.00,Thursday
6,4.5249999999999999
7,32.993380952995099
8,28.684979452821396
9,12.794550682542012
10,30.331038563225996
2,5, 1, 5, 0,10, 0.00,60.00,Thursday
6,7.975
7,40.2532329928629
8,36.47297927342605
9,14.83477220718978
10,37.808728753678767
2,5, 1, 5, 0,11, 0.00,60.00,Thursday
6,10.6625
7,39.70641997289988
8,36.735923213749547
9,15.863962076225676
10,37.167074961099178
2,5, 1, 5, 0,12, 0.00,60.00,Thursday
6,12.1
7,29.768552129707886
8,27.533891544171479
9,14.85390352955393
10,27.477768265220317
2,5, 1, 5, 0,13, 0.00,60.00,Thursday
6,11.962499999999999
7,23.643943716292019
8,22.3593423901076
9,13.58609709087059
10,22.224540505510608
2,5, 1, 5, 0,14, 0.00,60.00,Thursday
6,11.0125
7,22.647174895020798
8,21.41415509484544
9,13.118052594458142
10,21.248096549046435
2,5, 1, 5, 0,15, 0.00,60.00,Thursday
6,9.2875
7,20.012261495688944
8,18.840412044841846
9,12.620245385353634
10,18.664011406815093
2,5, 1, 5, 0,16, 0.00,60.00,Thursday
6,8.375
7,14.35600504474384
8,13.611792417973375
9,11.49132340663726
10,13.473605910777224
2,5, 1, 5, 0,17, 0.00,60.00,Thursday
6,5.55
7,8.502469586363436
8,8.467290266934246
9,9.932426254468942
10,8.262843128112375
2,5, 1, 5, 0,18, 0.00,60.00,Thursday
6,3.0875
7,4.3803179742746229
8,4.554160072736712
9,8.976786186375082
10,4.318935524237215
2,5, 1, 5, 0,19, 0.00,60.00,Thursday
6,2.7249999999999998
7,2.9537787744650689
8,3.114053892202614
9,7.728467340581075
10,2.8617529767570817
2,5, 1, 5, 0,20, 0.00,60.00,Thursday
6,2.9875
7,2.5429557977311036
8,2.640370798486988
9,7.520759179570007
10,2.3771155087239568
2,5, 1, 5, 0,21, 0.00,60.00,Thursday
6,3.0375
7,2.321201743526767
8,2.308041921479204
9,7.38811183386953
10,2.040316788032879
2,5, 1, 5, 0,22, 0.00,60.00,Thursday
6,2.9375000000000006
7,2.1551418845195795
8,2.076684676085729
9,7.261465150562724
10,1.8140391131020435
2,5, 1, 5, 0,23, 0.00,60.00,Thursday
6,2.9625
7,2.075818777806442
8,1.9148754224456695
9,7.156887673439718
10,1.6575174743078225
2,5, 1, 5, 0,24, 0.00,60.00,Thursday
6,2.8125
7,2.141638409695102
8,1.9672563589454375
9,7.043922063781005
10,1.7231525210176804
2,6, 1, 6, 0, 1, 0.00,60.00,Friday
6,2.2
7,1.8655404897053634
8,1.6317220978607688
9,6.8232722419130049
10,1.3992246223678334
2,6, 1, 6, 0, 2, 0.00,60.00,Friday
6,0.775
7,0.9724030451693131
8,0.7187964939370869
9,6.426010713478177
10,0.4960604390691421
2,6, 1, 6, 0, 3, 0.00,60.00,Friday
6,0.28750000000000006
7,-0.028204612060536546
8,-0.4267613073855622
9,6.089870389575339
10,-0.6512784320904244
2,6, 1, 6, 0, 4, 0.00,60.00,Friday
6,0.7125
7,-0.17852670216973638
8,-0.6762967017496521
9,5.977804277942885
10,-0.897294391568315
2,6, 1, 6, 0, 5, 0.00,60.00,Friday
6,0.9
7,0.14357194536767904
8,-0.3479169575766778
9,5.888415662836611
10,-0.5545670348565228
2,6, 1, 6, 0, 6, 0.00,60.00,Friday
6,0.7125
7,5.571867098491593
8,4.992268658902819
9,6.077523122692418
10,4.866053615110198
2,6, 1, 6, 0, 7, 0.00,60.00,Friday
6,1.1625
7,14.487886676886479
8,12.099215970230981
9,7.757395095196881
10,12.50626052393923
2,6, 1, 6, 0, 8, 0.00,60.00,Friday
6,2.125
7,19.634686647789164
8,16.639343996557967
9,8.941019016122607
10,17.042305124010818
2,6, 1, 6, 0, 9, 0.00,60.00,Friday
6,3.1874999999999997
7,25.09596056866244
8,21.825603824582335
9,11.156122163075885
10,22.21628265416278
2,6, 1, 6, 0,10, 0.00,60.00,Friday
6,4.7875
7,31.169665149383623
8,27.370248120347904
9,12.653289729766988
10,27.95064844128797
2,6, 1, 6, 0,11, 0.00,60.00,Friday
6,6.75
7,35.76742024455631
8,32.412035001138388
9,14.239858470872907
10,32.83375888164033
2,6, 1, 6, 0,12, 0.00,60.00,Friday
6,8.5625
7,36.775511353654888
8,34.667551190574197
9,15.456852717103605
10,34.635185617699
2,6, 1, 6, 0,13, 0.00,60.00,Friday
6,10.200000000000001
7,36.41195808011496
8,34.06839209707589
9,15.865270188834156
10,33.66730861057253
2,6, 1, 6, 0,14, 0.00,60.00,Friday
6,11.2375
7,29.733119557984375
8,27.558404042473464
9,14.856039043843137
10,27.23521109932822
2,6, 1, 6, 0,15, 0.00,60.00,Friday
6,11.562500000000002
7,22.161347937326427
8,21.234979201178136
9,13.378571308728766
10,21.05950255369045
2,6, 1, 6, 0,16, 0.00,60.00,Friday
6,9.1625
7,15.457203821329447
8,15.121021840976433
9,11.858661532906629
10,14.991062373071513
2,6, 1, 6, 0,17, 0.00,60.00,Friday
6,5.762500000000001
7,8.582823084164568
8,8.585713700219302
9,9.956028165479644
10,8.440045978633777
2,6, 1, 6, 0,18, 0.00,60.00,Friday
6,2.6625
7,4.129789916877584
8,4.33450477901992
9,8.749321825117065
10,4.176419598846261
2,6, 1, 6, 0,19, 0.00,60.00,Friday
6,1.5
7,1.9851696297432884
8,2.0718611746474209
9,7.3173899462892939
10,1.9067725131354172
2,6, 1, 6, 0,20, 0.00,60.00,Friday
6,1.5
7,1.4748464697969775
8,1.470951296102914
9,6.909905493902509
10,1.3051119610271674
2,6, 1, 6, 0,21, 0.00,60.00,Friday
6,0.5625
7,0.8614605236812392
8,0.7872349110529699
9,6.559802101043777
10,0.6241471849033842
2,6, 1, 6, 0,22, 0.00,60.00,Friday
6,0.0
7,0.12786813466738992
8,-0.08607270627818775
9,6.234686481441075
10,-0.24775246907101823
2,6, 1, 6, 0,23, 0.00,60.00,Friday
6,0.0625
7,-0.08591854757615342
8,-0.3985586103823334
9,6.073131964686617
10,-0.5581649945179139
2,6, 1, 6, 0,24, 0.00,60.00,Friday
6,0.0375
7,-0.187516706118134
8,-0.5599853022160538
9,5.936606437463539
10,-0.7173990785731906
2,7, 1, 7, 0, 1, 0.00,60.00,Saturday
6,0.0
7,-0.3640171410034422
8,-0.792232035033927
9,5.793360799848777
10,-0.9457840952277498
2,7, 1, 7, 0, 2, 0.00,60.00,Saturday
6,0.125
7,-0.5140704821618127
8,-1.006792984682598
9,5.674770422896161
10,-1.158157384629427
2,7, 1, 7, 0, 3, 0.00,60.00,Saturday
6,0.2625
7,-0.3827073094368636
8,-0.9040642629704397
9,5.575853628528982
10,-1.051516104265783
2,7, 1, 7, 0, 4, 0.00,60.00,Saturday
6,0.1125
7,-0.5380960107784261
8,-1.0703664028998037
9,5.430445678915408
10,-1.2140601431153718
2,7, 1, 7, 0, 5, 0.00,60.00,Saturday
6,-0.0625
7,-0.9602409937339089
8,-1.5815374582163069
9,5.234927594131423
10,-1.7249731323034352
2,7, 1, 7, 0, 6, 0.00,60.00,Saturday
6,0.14999999999999998
7,2.647747867216452
8,2.03399670763462
9,5.351538893969166
10,1.9199639977958514
2,7, 1, 7, 0, 7, 0.00,60.00,Saturday
6,0.6749999999999999
7,7.003539631404205
8,6.407241395354301
9,6.611494919941759
10,6.294336395193075
2,7, 1, 7, 0, 8, 0.00,60.00,Saturday
6,1.275
7,14.088131433131068
8,12.582017438449885
9,7.511784119810236
10,12.634510121714431
2,7, 1, 7, 0, 9, 0.00,60.00,Saturday
6,2.375
7,28.639486487542418
8,25.398157357819465
9,10.735311639601339
10,26.467464064256427
2,7, 1, 7, 0,10, 0.00,60.00,Saturday
6,4.5874999999999999
7,36.170767268063169
8,32.4719802965886
9,12.860740566913167
10,33.479926868844739
2,7, 1, 7, 0,11, 0.00,60.00,Saturday
6,6.9125
7,38.031813358256218
8,35.145117257979958
9,14.179936789396649
10,35.651664252568668
2,7, 1, 7, 0,12, 0.00,60.00,Saturday
6,9.075000000000001
7,31.78640182438707
8,29.665594798907045
9,13.813661522584932
10,29.66236994261464
2,7, 1, 7, 0,13, 0.00,60.00,Saturday
6,10.025
7,22.335197708276369
8,21.190762604649775
9,12.324652474485756
10,21.11879855587269
2,7, 1, 7, 0,14, 0.00,60.00,Saturday
6,8.912499999999998
7,16.992020473959348
8,16.37115710564332
9,11.139476544338708
10,16.30564562092083
2,7, 1, 7, 0,15, 0.00,60.00,Saturday
6,6.887499999999999
7,10.595779628637154
8,10.348266629682512
9,9.625570955382737
10,10.256885256637624
2,7, 1, 7, 0,16, 0.00,60.00,Saturday
6,5.0375
7,7.276458429059531
8,7.290053797520511
9,8.366072019344048
10,7.1830517377876819
2,7, 1, 7, 0,17, 0.00,60.00,Saturday
6,3.5250000000000005
7,5.511531469980301
8,5.439190121318866
9,7.605767856271529
10,5.324392451478166
2,7, 1, 7, 0,18, 0.00,60.00,Saturday
6,2.5625
7,3.187334813408591
8,3.1793649469726787
9,7.24671340649407
10,3.0578006126712156
2,7, 1, 7, 0,19, 0.00,60.00,Saturday
6,2.3625
7,2.0940273681101009
8,2.0565898210498827
9,6.324372173945956
10,1.924178145391246
2,7, 1, 7, 0,20, 0.00,60.00,Saturday
6,2.3374999999999996
7,1.9861857310928076
8,1.9295309142409843
9,6.1405648977858109
10,1.7958090256992252
2,7, 1, 7, 0,21, 0.00,60.00,Saturday
6,2.1125
7,1.7221976268749529
8,1.5993427930340829
9,5.98080801052407
10,1.4646370863239938
2,7, 1, 7, 0,22, 0.00,60.00,Saturday
6,1.8125000000000003
7,1.110474210623965
8,0.9293803864162561
9,5.804918266701553
10,0.7908666897278303
2,7, 1, 7, 0,23, 0.00,60.00,Saturday
6,1.7
7,0.5948512903227772
8,0.29184401954289548
9,5.642243882274627
10,0.14891003032840015
2,7, 1, 7, 0,24, 0.00,60.00,Saturday
6,2.075
7,0.7036584169457478
8,0.35058999367138518
9,5.597448953955414
10,0.20920775518109126
2,8, 1, 8, 0, 1, 0.00,60.00,Sunday
6,2.425
7,1.2683598760833098
8,0.9403312461884041
9,5.61059182300402
10,0.8057777022038652
2,8, 1, 8, 0, 2, 0.00,60.00,Sunday
6,2.5
7,1.548896531390382
8,1.2395959308385472
9,5.582564857480626
10,1.1125778695660654
2,8, 1, 8, 0, 3, 0.00,60.00,Sunday
6,2.4375
7,1.366044824798214
8,1.0222909287065068
9,5.492478884963677
10,0.8976222953318884
2,8, 1, 8, 0, 4, 0.00,60.00,Sunday
6,2.15
7,1.0515320434056244
8,0.6565889255113002
9,5.333110135864901
10,0.5334168282087712
2,8, 1, 8, 0, 5, 0.00,60.00,Sunday
6,2.0
7,0.8242117019399492
8,0.3945005346892974
9,5.181319161470878
10,0.274784380780418
2,8, 1, 8, 0, 6, 0.00,60.00,Sunday
6,1.8749999999999998
7,4.285967090923737
8,3.8201258543761904
9,5.292565492442858
10,3.6993154772935368
2,8, 1, 8, 0, 7, 0.00,60.00,Sunday
6,2.3000000000000004
7,7.093131336682688
8,6.555063818668126
9,6.242483813374658
10,6.450813178326963
2,8, 1, 8, 0, 8, 0.00,60.00,Sunday
6,2.5375
7,11.457872207704757
8,10.29218224759378
9,6.8019314668327539
10,10.313944795577914
2,8, 1, 8, 0, 9, 0.00,60.00,Sunday
6,3.0625000000000006
7,24.450823421572009
8,21.089373957717947
9,9.563872962856732
10,21.8428774154169
2,8, 1, 8, 0,10, 0.00,60.00,Sunday
6,4.8999999999999999
7,32.51219100446736
8,28.683525691829389
9,11.67335583471921
10,29.395505516824323
2,8, 1, 8, 0,11, 0.00,60.00,Sunday
6,6.9875
7,35.697315201295449
8,32.45312683694405
9,13.045057714921038
10,32.779089549326318
2,8, 1, 8, 0,12, 0.00,60.00,Sunday
6,9.325
7,33.511766208801969
8,30.95821387326458
9,13.429928829526027
10,30.935966435365687
2,8, 1, 8, 0,13, 0.00,60.00,Sunday
6,9.862499999999999
7,23.268569289082927
8,21.86570002654197
9,12.084516217413333
10,21.781970782714624
2,8, 1, 8, 0,14, 0.00,60.00,Sunday
6,7.7875
7,16.5867214560227
8,15.817878574386583
9,10.613321317590018
10,15.747408132300752
2,8, 1, 8, 0,15, 0.00,60.00,Sunday
6,6.012499999999999
7,11.483704957273466
8,10.860548749180799
9,9.280055021518188
10,10.787351249198576
2,8, 1, 8, 0,16, 0.00,60.00,Sunday
6,4.6625
7,6.956994563882917
8,6.823674116359596
9,7.951140634554074
10,6.726384433323436
2,8, 1, 8, 0,17, 0.00,60.00,Sunday
6,4.1
7,5.031154858222571
8,4.977621395063297
9,7.154200336191135
10,4.867898371365582
2,8, 1, 8, 0,18, 0.00,60.00,Sunday
6,1.5999999999999997
7,2.444413962293362
8,2.5231513922967339
9,6.750730293978952
10,2.404714658046461
2,8, 1, 8, 0,19, 0.00,60.00,Sunday
6,0.1
7,0.027355855194646326
8,-0.07194276406403985
9,5.492128516388234
10,-0.205026463926246
2,8, 1, 8, 0,20, 0.00,60.00,Sunday
6,0.1
7,-0.5979087390307722
8,-0.8115048107231506
9,5.160925482803368
10,-0.9500852783548548
2,8, 1, 8, 0,21, 0.00,60.00,Sunday
6,0.0375
7,-0.5315967203972774
8,-0.8224939451955982
9,4.996177975833781
10,-0.9598883440489163
2,8, 1, 8, 0,22, 0.00,60.00,Sunday
6,-0.0625
7,-0.34382475845606177
8,-0.622089786016561
9,4.886894249250857
10,-0.7540591250027339
2,8, 1, 8, 0,23, 0.00,60.00,Sunday
6,-0.1
7,-0.5519694449130251
8,-0.9109801650543434
9,4.776193657368751
10,-1.043643239202304
2,8, 1, 8, 0,24, 0.00,60.00,Sunday
6,-0.16250000000000004
7,-0.6753012715683441
8,-1.0858845686442598
9,4.661852694838431
10,-1.2172619390278972
2,9, 1, 9, 0, 1, 0.00,60.00,Monday
6,-0.1375
7,-0.814431961957969
8,-1.2613471376433776
9,4.5591292910060849
10,-1.3910639654784465
2,9, 1, 9, 0, 2, 0.00,60.00,Monday
6,-0.1
7,-1.0414700542723455
8,-1.5410412185103673
9,4.452142803273822
10,-1.670082754946504
2,9, 1, 9, 0, 3, 0.00,60.00,Monday
6,-0.0375
7,-1.1220239579386844
8,-1.6671473760363125
9,4.344316995973134
10,-1.7938132052321812
2,9, 1, 9, 0, 4, 0.00,60.00,Monday
6,0.1875
7,-1.014190553853373
8,-1.5686118164113477
9,4.2777760691277229
10,-1.6923766370908758
2,9, 1, 9, 0, 5, 0.00,60.00,Monday
6,0.175
7,-0.9771003751541585
8,-1.5403830217883908
9,4.18236456121148
10,-1.6603732787010422
2,9, 1, 9, 0, 6, 0.00,60.00,Monday
6,0.1
7,3.2309076122257238
8,2.7197305915348517
9,4.331815856958171
10,2.6149150454130227
2,9, 1, 9, 0, 7, 0.00,60.00,Monday
6,0.35
7,10.662328292930086
8,9.450639594719278
9,5.695682072727108
10,9.456219840247649
2,9, 1, 9, 0, 8, 0.00,60.00,Monday
6,1.125
7,18.902447624981244
8,16.381595254897918
9,7.029111645728163
10,16.831306235733803
2,9, 1, 9, 0, 9, 0.00,60.00,Monday
6,2.8125
7,18.063997891199599
8,16.04078061016252
9,8.487305123820058
10,16.150382271400927
2,9, 1, 9, 0,10, 0.00,60.00,Monday
6,4.1
7,20.598957678906886
8,18.42726527421683
9,9.134000984226436
10,18.460038405836458
2,9, 1, 9, 0,11, 0.00,60.00,Monday
6,5.4
7,29.789462194069978
8,26.946621607651829
9,10.90111478136929
10,27.080396419350458
2,9, 1, 9, 0,12, 0.00,60.00,Monday
6,7.25
7,32.457226875431938
8,30.18741832499964
9,12.149919026049254
10,30.13462925893532
2,9, 1, 9, 0,13, 0.00,60.00,Monday
6,8.75
7,25.92577888930449
8,23.967626538412579
9,11.642452221096994
10,23.815527463045649
2,9, 1, 9, 0,14, 0.00,60.00,Monday
6,7.7
7,27.960845453837206
8,25.680227925196946
9,11.755950485696229
10,24.799256551895846
2,9, 1, 9, 0,15, 0.00,60.00,Monday
6,7.3625
7,28.251446100052307
8,26.001576108678664
9,11.973737905110454
10,24.276811760077775
2,9, 1, 9, 0,16, 0.00,60.00,Monday
6,8.2
7,16.054506271668076
8,15.312135567489108
9,10.300110700340909
10,14.746359669120079
2,9, 1, 9, 0,17, 0.00,60.00,Monday
6,6.0
7,8.311981107054934
8,8.2699194596669
9,8.40565684233082
10,8.0980757433321
2,9, 1, 9, 0,18, 0.00,60.00,Monday
6,2.4375
7,3.6083213814816199
8,3.8109164441814107
9,7.041636638975474
10,3.668002686605825
2,9, 1, 9, 0,19, 0.00,60.00,Monday
6,0.38749999999999998
7,0.9962424614392057
8,1.107010840904459
9,5.555077235825513
10,0.9666365393388021
2,9, 1, 9, 0,20, 0.00,60.00,Monday
6,-0.28750000000000006
7,-0.0899372022754805
8,-0.09667519962790149
9,5.019456434743417
10,-0.23206522155078258
2,9, 1, 9, 0,21, 0.00,60.00,Monday
6,-0.5874999999999999
7,-0.556196484847832
8,-0.676166381275864
9,4.748105783409885
10,-0.8059099506376429
2,9, 1, 9, 0,22, 0.00,60.00,Monday
6,-0.7
7,-0.9030772002878494
8,-1.1172290530594076
9,4.574610682125352
10,-1.2418318613654127
2,9, 1, 9, 0,23, 0.00,60.00,Monday
6,-0.7625
7,-1.125320679746674
8,-1.4342490694752006
9,4.441598613893456
10,-1.554524710537566
2,9, 1, 9, 0,24, 0.00,60.00,Monday
6,-0.8
7,-1.2676597022378283
8,-1.6324153997776956
9,4.329464977973952
10,-1.7474728864634553
2,10, 1,10, 0, 1, 0.00,60.00,Tuesday
6,-0.8
7,-1.4423690280092386
8,-1.8794312102528286
9,4.222214092016879
10,-1.9912872682252712
2,10, 1,10, 0, 2, 0.00,60.00,Tuesday
6,-0.8
7,-1.5211368964101362
8,-2.005601514944611
9,4.115714105642035
10,-2.113636438280486
2,10, 1,10, 0, 3, 0.00,60.00,Tuesday
6,-0.925
7,-1.6366646924677213
8,-2.156302044058801
9,3.985940466551899
10,-2.260526946282208
2,10, 1,10, 0, 4, 0.00,60.00,Tuesday
6,-1.0
7,-1.7653205079188843
8,-2.3269399380195354
9,3.8497135734515526
10,-2.427703940964629
2,10, 1,10, 0, 5, 0.00,60.00,Tuesday
6,-0.875
7,-1.7864566554792796